written on  9Sep2022 at 16:41:47 
4
0
   0.0000000000000000       2.7152650000000000       2.7152650000000000       2.7152650000000000       0.0000000000000000       2.7152650000000000       2.7152650000000000       2.7152650000000000       0.0000000000000000    
  -1.1570114348285685       1.1570114348285685       1.1570114348285685       1.1570114348285685      -1.1570114348285685       1.1570114348285685       1.1570114348285685       1.1570114348285685      -1.1570114348285685    
8
2 2 2
   0.0000000000000000       0.0000000000000000       0.0000000000000000    
   0.0000000000000000       0.0000000000000000      0.50000000000000000    
   0.0000000000000000      0.50000000000000000       0.0000000000000000    
   0.0000000000000000      0.50000000000000000      0.50000000000000000    
  0.50000000000000000       0.0000000000000000       0.0000000000000000    
  0.50000000000000000       0.0000000000000000      0.50000000000000000    
  0.50000000000000000      0.50000000000000000       0.0000000000000000    
  0.50000000000000000      0.50000000000000000      0.50000000000000000    
8
4
postwann            
0
  0.48959920831853060     -0.10145269362903175    
 -0.37250548768748215     -0.26506862084361060    
 -0.39860198691535453      0.35788117732332275    
 -0.47148951916447773     -0.17808258286231310    
  0.48959919735805674     -0.10145264807930909    
 -0.98528355433369449E-01 -0.55079441535209828    
  0.33808328958972234     -0.83760589285292814E-01
  0.43326559534667253      0.35760654105908829    
  0.48959912279945039     -0.10145264757123108    
  0.32223853691424559      0.50566051817443280    
 -0.27351665715032036      0.29175167486123038    
  0.47369015200048376     -0.78466956844712887E-01
  0.48959920034416521     -0.10145262239328497    
  0.14879534523706872      0.31020263377674295    
  0.33403539995526471     -0.56587217812973001    
 -0.43546615425952606     -0.10105700250597591    
  0.53986671727430047      0.20463937838016144    
 -0.26842235605254880E-06  0.15155686692252407E-06
 -0.52620381410403583     -0.52703495379102760    
 -0.37143675199992460E-02  0.33465887015636803    
 -0.24724484388014598E-06 -0.31998023856831104E-07
 -0.35698875685447558E-01  0.99936259199258481    
  0.16430409714121574E-06 -0.45677358100716309E-06
  0.29691085160132896E-06 -0.52050222623541297E-06
  0.53986657790058012      0.20463951226043781    
  0.36314391029323370E-06 -0.28658704411391592E-06
  0.38891405899078441      0.24063244442875022E-02
  0.61284531020467148     -0.37393507213102556    
  0.53986667644765929      0.20463961528666874    
 -0.20961844271687694E-06  0.55127568271290444E-06
  0.13728958487391762      0.52462876180376194    
 -0.60913070938028868      0.39276081520453185E-01
  0.51393716797085809      0.26306267113584603    
  0.16039566364339654E-06  0.43480026857715467E-06
 -0.33634749185256063     -0.54699112916024539    
 -0.19469596559130778     -0.46522163401943673    
  0.51393702751263137      0.26306278043942777    
  0.43379273225642369E-08 -0.38750034477712491E-06
  0.54732151834117482      0.56700322293188221E-01
 -0.42222305506991586      0.43083480137843394    
  0.22019355939039837E-06  0.11896223471757046E-06
 -0.57145909153407692     -0.82063055433159759    
 -0.41528354713267813E-06  0.67328953449606936E-07
  0.83332015518920385E-07 -0.46726747088281846E-06
  0.51393701351908894      0.26306286295663672    
  0.90839133037939548E-07  0.30283463849490198E-06
 -0.21097419408268991      0.49029092158435567    
  0.61691888444011056      0.34387031455633599E-01
 -0.49699572034224959     -0.17439064667335033    
  0.43906630360878784     -0.17263824395240679    
 -0.25293110443617484      0.27273095626792060    
  0.18109286866992008     -0.57345359785554362    
 -0.16191554811348272      0.44313248675857125    
  0.18641842154115751      0.49261050427917336    
 -0.34445233382781404      0.49294671235757126    
 -0.62206392116618194E-01  0.36672402555391392    
 -0.16191580750156717      0.44313244734447838    
  0.18641857901632300      0.49261043069683735    
  0.34445237681855406     -0.49294648261127139    
  0.62206242124203913E-01 -0.36672427133178526    
 -0.49699598532471800     -0.17439038601751777    
  0.43906608620677445     -0.17263814715625753    
  0.25293084413075922     -0.27273086343654296    
 -0.18109273182518934      0.57345384524113696    
  0.85472147930301438E-07 -0.26107095784208226E-08
  0.54436334120643456E-01 -0.99851724348017568    
 -0.22370073044837993E-06  0.70800180838907019E-07
  0.11990264269618579E-06  0.42678526767938364E-06
 -0.19036841131961521      0.54506268683540349    
 -0.18400628846208832E-06  0.15409013942174191E-06
  0.33120139620840977      0.23054159053632806    
 -0.29759737724375335      0.64440557619528815    
 -0.19036829933407892      0.54506248500528853    
  0.16584667857561848E-06 -0.36909084737439781E-06
  0.43117621254356864      0.32121454987539377E-01
  0.17208582497749400     -0.67090129881841121    
 -0.19036838586561827      0.54506257540106340    
 -0.11701772387420378E-06  0.15446969655041841E-06
 -0.76237758091183727     -0.26266313059051405    
  0.12551159865561090      0.26495454598135362E-01
 -0.36281343686881312      0.62426106607792027E-01
 -0.10221873191018374     -0.59499641129697489    
  0.40523459798412720      0.74622233556996070E-01
  0.26483962818727130     -0.50997686891550320    
 -0.36281351522944755      0.62426532463054407E-01
 -0.10221859663855679     -0.59499632968982830    
 -0.40523466218639431     -0.74622518804753957E-01
 -0.26483930539827827      0.50997695823873845    
  0.47674031625568652      0.37038914067936257    
  0.22593828277809830     -0.29065858361487518    
  0.42169275521095390     -0.39037390432250363    
  0.17921738837219001      0.37103180214256581    
  0.47674019860866912      0.37038899930548413    
  0.22593855405992860     -0.29065886788959111    
 -0.42169257175485975      0.39037366850095262    
 -0.17921761068732253     -0.37103205578212017    
 -0.18682774238313823     -0.78116653370395766E-02
  0.15116410030146308E-01 -0.68176675164153955    
  0.18993591215590605     -0.26559996746694445E-01
 -0.63302346701986989     -0.25000033822594381    
  0.68191934134147192     -0.44994884886569754E-02
 -0.49016181890156408E-02 -0.18692708948006881    
 -0.64816442533171759      0.20761003268130546    
 -0.18776458707131671     -0.39056571429138508E-01
 -0.18682801667763607     -0.78114554174563170E-02
  0.15116188785829576E-01 -0.68176662960993439    
 -0.18993553417736680      0.26559725328213376E-01
  0.63302375059397709      0.25000008393327960    
  0.68191947278466614     -0.44994504194937621E-02
 -0.49018487695014178E-02 -0.18692662551687364    
  0.64816432752897180     -0.20761008231045572    
  0.18776480262303510      0.39056795470364745E-01
  0.48029183753715476      0.32039535201748381    
 -0.18940035642966581E-07 -0.26854038621865077E-06
 -0.17708521747188744     -0.30627311511348666E-01
  0.77935949545760985     -0.16421979047388038    
  0.48029167141777540      0.32039542294310253    
 -0.78412852159859861E-07  0.51746407017085440E-06
 -0.20350998472215998     -0.60957216013694016    
 -0.50306212967873531     -0.24508054003169896E-01
  0.48029164936905927      0.32039535588229573    
  0.13794238227618077E-06 -0.54556018351023537E-07
  0.38059530940414837      0.64019955615911905    
 -0.27629755454779137      0.18872770750348786    
  0.69874787188723444E-07  0.90882392845226092E-07
  0.12088217501993515     -0.99266686242771351    
 -0.18095213885033454E-06 -0.29435416511049487E-06
 -0.48296707819586227E-06 -0.51062889649477282E-07
  0.76122447980568275     -0.31530940930937190    
  0.29299749836550214E-01 -0.12135978382263483E-01
  0.15634696916339993E-01 -0.64767701453173204E-02
  0.15635533328599186E-01 -0.64764412312194944E-02
  0.58154022675078056E-01  0.14039595613010672    
  0.30001005773038619      0.72428849758453973    
  0.58153846443206529E-01  0.14039644693929443    
  0.58153839485833379E-01  0.14039610499412220    
  0.15635918921983426E-01 -0.64768822395998848E-02
  0.29299743186721613E-01 -0.12136336487970797E-01
  0.76122394441188013     -0.31530943848413440    
  0.15636004694430088E-01 -0.64765960760785942E-02
  0.15635977665016912E-01 -0.64760078210510654E-02
  0.29299263299543438E-01 -0.12136354956518686E-01
  0.15635715738542218E-01 -0.64764888600343188E-02
  0.76122467737406330     -0.31530885203030540    
  0.76122395655073138     -0.31530978371400287    
  0.15635548456167762E-01 -0.64765077282012053E-02
  0.29300121715784815E-01 -0.12136349558463556E-01
  0.15635340688415631E-01 -0.64768107387005846E-02
  0.15635775122112509E-01 -0.64765111138787596E-02
  0.76122408562661770     -0.31530870416004031    
  0.29299393628156437E-01 -0.12136453626931125E-01
  0.15635865997918483E-01 -0.64762040423647612E-02
  0.58154096981648043E-01  0.14039635633988334    
  0.58154141405603252E-01  0.14039629125713995    
  0.30001020901164233      0.72428780176247443    
  0.58154038643904352E-01  0.14039622916114011    
  0.15635014768169451E-01 -0.64766139109135416E-02
  0.15636170235469090E-01 -0.64766938071565243E-02
  0.29300183321089322E-01 -0.12136223083040557E-01
  0.76122394961830275     -0.31530967357887141    
  0.30000969378226489      0.72428798168297182    
  0.58154069342606876E-01  0.14039606637636606    
  0.58153818940716411E-01  0.14039641868770603    
  0.58154089352333328E-01  0.14039629299812756    
  0.29300200903421905E-01 -0.12136459760338348E-01
  0.76122403255831006     -0.31530933484757728    
  0.15635329065525883E-01 -0.64768959223685686E-02
  0.15636168897505437E-01 -0.64765925551561907E-02
  0.29300070804935699E-01 -0.12136624931737013E-01
  0.15635461063185346E-01 -0.64760770084449186E-02
  0.76122420170811789     -0.31530881892782731    
  0.15635170302905101E-01 -0.64764987984406224E-02
  0.29299686311541173E-01 -0.12136253302920065E-01
  0.15635763527851610E-01 -0.64769521855080406E-02
  0.15635916937732988E-01 -0.64766451746236025E-02
  0.76122370611951018     -0.31530936973878959    
  0.76122508465938343      0.31530939956150844    
  0.15635186331669250E-01  0.64762465940293975E-02
  0.15635536586821926E-01  0.64757621024284784E-02
  0.29299957529636118E-01  0.12136805464824065E-01
  0.15635252539419459E-01  0.64761758512828340E-02
  0.76122418273428127      0.31530996258180993    
  0.15634901752469128E-01  0.64770346270409335E-02
  0.29300247510611142E-01  0.12136313239746963E-01
  0.15635656593248375E-01  0.64767910480124776E-02
  0.15634903785113230E-01  0.64764672293294205E-02
  0.76122404704084312      0.31530908349804027    
  0.29300549841984071E-01  0.12136541015026736E-01
  0.58153819017622753E-01 -0.14039599856694940    
  0.58154304567796765E-01 -0.14039670828235004    
  0.58154227417877985E-01 -0.14039661288374156    
  0.30000966428647452     -0.72428744030428172    
  0.76122410657592121      0.31530918676954284    
  0.29300483580758419E-01  0.12136348602655014E-01
  0.15635840474600541E-01  0.64770978608377156E-02
  0.15635407304438700E-01  0.64762634313156979E-02
  0.58154334573580282E-01 -0.14039663483205331    
  0.30000948561351415     -0.72428719657984886    
  0.58153776899729032E-01 -0.14039631134233499    
  0.58153985622863454E-01 -0.14039673470397829    
  0.15634885699892388E-01  0.64763710676951558E-02
  0.29300309034437252E-01  0.12136446006575936E-01
  0.76122445604792166      0.31530959698901206    
  0.15634798787034263E-01  0.64765399039377405E-02
  0.15635534073015971E-01  0.64757238881285950E-02
  0.29300525436948648E-01  0.12136853225992474E-01
  0.15635235901537620E-01  0.64767243071162696E-02
  0.76122433390892941      0.31530871175023151    
  0.76122426145118671      0.31530982930830204    
  0.15635453574371128E-01  0.64762044990419399E-02
  0.29299841158249733E-01  0.12136290327229186E-01
  0.15635428989366970E-01  0.64769001276514275E-02
  0.15635282586929668E-01  0.64761054957441404E-02
  0.76122490186415792      0.31530904217458194    
  0.29300378827707110E-01  0.12136883325883892E-01
  0.15635111224746690E-01  0.64762127527584357E-02
  0.58154135845949549E-01 -0.14039635304433826    
  0.58154147490086093E-01 -0.14039631609930575    
  0.30001004737595921     -0.72428757513056263    
  0.58154036049142904E-01 -0.14039650943589804    
  0.15635573745746173E-01  0.64769023270197850E-02
  0.15634808902052943E-01  0.64764488301666413E-02
  0.29299952675479728E-01  0.12136042150548551E-01
  0.76122428062988734      0.31530984690411723    
  0.30000989532524891     -0.72428774591813250    
  0.58154361179202467E-01 -0.14039648424282228    
  0.58153905076935311E-01 -0.14039627886954084    
  0.58154123877974168E-01 -0.14039627573265939    
  0.29299808024045238E-01  0.12136341243301601E-01
  0.76122447267548643      0.31530958838486972    
  0.15635497789951536E-01  0.64767401298878218E-02
  0.15635026049533991E-01  0.64759763877124763E-02
  0.29299783071071676E-01  0.12136611241906526E-01
  0.15635684836170428E-01  0.64759047187830489E-02
  0.76122468939631294      0.31530913054932069    
  0.15635732870900365E-01  0.64764639637344655E-02
  0.29300370786520105E-01  0.12136557930645634E-01
  0.15634809180855556E-01  0.64764453887383132E-02
  0.15635167468608564E-01  0.64760183935719572E-02
  0.76122466690685198      0.31530988156551920    
  0.76122367281416314     -0.31530890169338738    
  0.15635869149165094E-01 -0.64764010993560717E-02
  0.15635984744411191E-01 -0.64760959847126485E-02
  0.29299791324053765E-01 -0.12136650113707551E-01
  0.15635840991628187E-01 -0.64763488201192310E-02
  0.76122390889106528     -0.31530990140512627    
  0.15635527157408680E-01 -0.64768846353330115E-02
  0.29299825622171354E-01 -0.12136263034519550E-01
  0.15634966429872207E-01 -0.64764767449033579E-02
  0.15636037276723563E-01 -0.64766636816574264E-02
  0.76122467570565278     -0.31530934187669601    
  0.29299502839521849E-01 -0.12136175285744196E-01
  0.58154155170329083E-01  0.14039672640829867    
  0.58154046347781922E-01  0.14039585429793949    
  0.58154013788141619E-01  0.14039588915339604    
  0.30001015805075137      0.72428822127896941    
  0.76122447980568320      0.31530940930937190    
  0.58154022675078069E-01 -0.14039595613010680    
  0.15635918921983374E-01  0.64768822395998866E-02
  0.15635977665016922E-01  0.64760078210510672E-02
  0.29299749836550228E-01  0.12135978382263456E-01
  0.30001005773038597     -0.72428849758453995    
  0.29299743186721607E-01  0.12136336487970762E-01
  0.29299263299543396E-01  0.12136354956518644E-01
  0.15634696916340000E-01  0.64767701453173742E-02
  0.58153846443206536E-01 -0.14039644693929446    
  0.76122394441188002      0.31530943848413445    
  0.15635715738542267E-01  0.64764888600343188E-02
  0.15635533328599214E-01  0.64764412312195005E-02
  0.58153839485833324E-01 -0.14039610499412208    
  0.15636004694430081E-01  0.64765960760785118E-02
  0.76122467737406330      0.31530885203030540    
  0.76258372408098851     -0.31587269575844912    
 -0.40772650326972831E-01 -0.98438183259436096E-01
  0.40732156578668813E-01 -0.16873900554627605E-01
  0.11123004988550868E-01 -0.46059904210533258E-02
 -0.42889233840773484E-01 -0.10354462282977123    
  0.75459226653605893     -0.31256214436437824    
  0.74018880807445869E-01  0.17869857737141678    
 -0.42889355207672744E-01 -0.10354471017782459    
  0.63574757319895508E-01  0.15348137912122795    
  0.32987389282241555E-01 -0.13663716998274782E-01
  0.29483536387707276      0.71179808292793900    
  0.63573904492859185E-01  0.15348059242228670    
  0.11122150002601076E-01 -0.46050971116454427E-02
 -0.40775747311147123E-01 -0.98436602249475300E-01
  0.40733021189952520E-01 -0.16872004318477705E-01
  0.76258420923396697     -0.31587382075403864    
  0.29483675542617982      0.71179912971116732    
  0.32986640591421097E-01 -0.13663040412372044E-01
  0.63573471613634747E-01  0.15348056048639458    
  0.63573543780918715E-01  0.15348055364176022    
  0.74018773462641518E-01  0.17869737562593016    
  0.75459366696700902     -0.31256356025134063    
 -0.42889375451542616E-01 -0.10354424138019627    
 -0.42889406601173415E-01 -0.10354431733210868    
  0.40732045191706125E-01 -0.16871574072692495E-01
 -0.40774233918056978E-01 -0.98437883573854634E-01
  0.76258405836579002     -0.31587377015265256    
  0.11123101157949719E-01 -0.46061238410198442E-02
  0.40732857218540912E-01 -0.16872589277626870E-01
 -0.40773876241760487E-01 -0.98436596705505919E-01
  0.11122883095873122E-01 -0.46055668041574830E-02
  0.76258374464910095     -0.31587380825044808    
  0.76122410657592066     -0.31530918676954267    
  0.58154334573580269E-01  0.14039663483205328    
  0.15634885699892343E-01 -0.64763710676951280E-02
  0.15635534073015937E-01 -0.64757238881286228E-02
  0.29300483580758357E-01 -0.12136348602655009E-01
  0.30000948561351398      0.72428719657984886    
  0.29300309034437210E-01 -0.12136446006575938E-01
  0.29300525436948641E-01 -0.12136853225992433E-01
  0.15635840474600555E-01 -0.64770978608376540E-02
  0.58153776899729032E-01  0.14039631134233496    
  0.76122445604792177     -0.31530959698901201    
  0.15635235901537630E-01 -0.64767243071162696E-02
  0.15635407304438648E-01 -0.64762634313156979E-02
  0.58153985622863467E-01  0.14039673470397815    
  0.15634798787034158E-01 -0.64765399039377249E-02
  0.76122433390892918     -0.31530871175023156    
  0.76258418896448343      0.31587322275506013    
 -0.40774848548190148E-01  0.98436358273061686E-01
  0.11123062349336797E-01  0.46052094889748978E-02
  0.40732584883180718E-01  0.16872540129003435E-01
 -0.42889336138039705E-01  0.10354446465179185    
  0.75459210940004473      0.31256283858872791    
 -0.42889577750682993E-01  0.10354460554198142    
  0.74019362733142677E-01 -0.17869832140304609    
  0.11123504459221965E-01  0.46059655359141022E-02
 -0.40773416811206088E-01  0.98438587400635852E-01
  0.76258353032649262      0.31587292649955445    
  0.40731586619976098E-01  0.16872959937308862E-01
  0.63574084509381623E-01 -0.15348023916028558    
  0.32987704775557222E-01  0.13664028390028950E-01
  0.63574054441482203E-01 -0.15348093549974798    
  0.29483537815460320     -0.71179865632412964    
  0.76258456103885375      0.31587301133841983    
 -0.40775588967862590E-01  0.98436483815049977E-01
  0.40732166879903102E-01  0.16872177908617600E-01
  0.11122822206211051E-01  0.46056442142878183E-02
 -0.42889556933679691E-01  0.10354455129735061    
  0.75459395911045868      0.31256283723861972    
  0.74018699632782903E-01 -0.17869727473571445    
 -0.42889685831270688E-01  0.10354435726372432    
  0.63574728724921870E-01 -0.15347992311224179    
  0.32986799296476611E-01  0.13663495447332618E-01
  0.29483574031789844     -0.71179929935611208    
  0.63574116020281443E-01 -0.15348139942873223    
  0.11123634532293668E-01  0.46062049691757735E-02
 -0.40772575864968026E-01  0.98437787971282262E-01
  0.40731864509029950E-01  0.16872908619433660E-01
  0.76258341663514928      0.31587356130899058    
  0.29483621172951580     -0.71179805935037432    
  0.32987478346995065E-01  0.13663546715201718E-01
  0.63574092769233911E-01 -0.15348068654522057    
  0.63574118035963897E-01 -0.15348077573052377    
  0.74019206474979712E-01 -0.17869793774026624    
  0.75459233986465601      0.31256273064591794    
 -0.42889660707540182E-01  0.10354424182631802    
 -0.42889709537234831E-01  0.10354412825342997    
  0.40732627622454790E-01  0.16872015582413278E-01
 -0.40774419969427218E-01  0.98438060190122606E-01
  0.76258344855740956      0.31587357008163847    
  0.11122562323065027E-01  0.46054895229787774E-02
  0.40732479271182960E-01  0.16872633321588427E-01
 -0.40773963626082273E-01  0.98437029311424354E-01
  0.11123113295014694E-01  0.46051986390493954E-02
  0.76258398759614043      0.31587391439517065    
  0.76258408824728108     -0.31587320674658576    
 -0.40772825509023114E-01 -0.98437439171302946E-01
  0.11122988823410937E-01 -0.46052799666667131E-02
  0.40732490728031340E-01 -0.16873575581606806E-01
 -0.42889447569782232E-01 -0.10354442222842604    
  0.75459376007465140     -0.31256330732651749    
 -0.42889504345213207E-01 -0.10354426784142745    
  0.74018860944118622E-01  0.17869700770146979    
  0.11122198875175484E-01 -0.46050732748837558E-02
 -0.40775235068052432E-01 -0.98437221814415346E-01
  0.76258455796409597     -0.31587331037065486    
  0.40732418288019066E-01 -0.16872642347872582E-01
  0.63574425832555195E-01  0.15348116377242568    
  0.32986265541979330E-01 -0.13663427737143154E-01
  0.63574380762343854E-01  0.15348041907186810    
  0.29483552066354751      0.71179900354574066    
  0.76122395655073083      0.31530978371400298    
  0.15635775122112484E-01  0.64765111138787614E-02
  0.58154096981648085E-01 -0.14039635633988345    
  0.15635014768169454E-01  0.64766139109135347E-02
  0.15635548456167759E-01  0.64765077282012357E-02
  0.76122408562661759      0.31530870416004037    
  0.58154141405603231E-01 -0.14039629125713993    
  0.15636170235469093E-01  0.64766938071565798E-02
  0.29300121715784767E-01  0.12136349558463561E-01
  0.29299393628156443E-01  0.12136453626931129E-01
  0.30001020901164227     -0.72428780176247420    
  0.29300183321089326E-01  0.12136223083040526E-01
  0.15635340688415638E-01  0.64768107387005620E-02
  0.15635865997918445E-01  0.64762040423647065E-02
  0.58154038643904275E-01 -0.14039622916114008    
  0.76122394961830275      0.31530967357887141    
  0.76258421029740386     -0.31587272128467869    
  0.40732362890797597E-01 -0.16872941216538137E-01
 -0.40772150225224200E-01 -0.98438150770250629E-01
  0.11122300273895311E-01 -0.46067756170661382E-02
  0.63573839244613253E-01  0.15348091702327635    
  0.29483624111031792      0.71179918502453365    
  0.32986192534497139E-01 -0.13663465794219728E-01
  0.63573993789077465E-01  0.15348039854937875    
 -0.42889674829438389E-01 -0.10354405269860986    
  0.74018888350110529E-01  0.17869717867814047    
  0.75459373350701264     -0.31256298704155250    
 -0.42889605295707837E-01 -0.10354404215622871    
  0.11122243091836159E-01 -0.46063097460882791E-02
  0.40732611755858003E-01 -0.16871472112922566E-01
 -0.40775310741998486E-01 -0.98436552017513834E-01
  0.76258483610682715     -0.31587277590136281    
  0.29483632435018681      0.71179848878450502    
  0.63573025831601127E-01  0.15348101305675332    
  0.32987151973498795E-01 -0.13664037516093406E-01
  0.63573934066326443E-01  0.15348020560933057    
  0.40732775353992029E-01 -0.16872365168613505E-01
  0.76258404753745490     -0.31587289302874222    
 -0.40773651326084751E-01 -0.98437225941237605E-01
  0.11122215621144058E-01 -0.46067870800720334E-02
  0.74019129946872708E-01  0.17869787749719576    
 -0.42889260290885960E-01 -0.10354428014256271    
  0.75459287059640068     -0.31256205766113787    
 -0.42889176203141741E-01 -0.10354424757477826    
  0.40732679410572889E-01 -0.16871848545899418E-01
  0.11122106258308562E-01 -0.46075267792406935E-02
 -0.40774609446703657E-01 -0.98437508028875145E-01
  0.76258450753050577     -0.31587268906083282    
  0.76122426145118671     -0.31530982930830209    
  0.15635282586929679E-01 -0.64761054957441404E-02
  0.58154135845949514E-01  0.14039635304433826    
  0.15635573745746173E-01 -0.64769023270197712E-02
  0.15635453574371110E-01 -0.64762044990419564E-02
  0.76122490186415792     -0.31530904217458200    
  0.58154147490086086E-01  0.14039631609930572    
  0.15634808902052960E-01 -0.64764488301666126E-02
  0.29299841158249688E-01 -0.12136290327229167E-01
  0.29300378827707110E-01 -0.12136883325883851E-01
  0.30001004737595932      0.72428757513056263    
  0.29299952675479739E-01 -0.12136042150548547E-01
  0.15635428989367001E-01 -0.64769001276514717E-02
  0.15635111224746721E-01 -0.64762127527584357E-02
  0.58154036049142883E-01  0.14039650943589796    
  0.76122428062988745     -0.31530984690411729    
  0.76258413134624692      0.31587261198658595    
  0.11122139896627151E-01  0.46074346604005655E-02
 -0.40774648050311106E-01  0.98436460655285427E-01
  0.40732990957078462E-01  0.16871456351740918E-01
  0.11123126746812723E-01  0.46070366943470791E-02
  0.76258424870409214      0.31587334151802543    
 -0.40773470197161599E-01  0.98438073119894484E-01
  0.40731760541809429E-01  0.16872203096014202E-01
 -0.42889355636430100E-01  0.10354434544609985    
 -0.42889455308220789E-01  0.10354406038263599    
  0.75459396168333581      0.31256271489430898    
  0.74018903504240868E-01 -0.17869724696884459    
  0.63574051745848431E-01 -0.15348038569023617    
  0.63573139998994416E-01 -0.15348051137328919    
  0.32986340492011115E-01  0.13663528174857409E-01
  0.29483704370469721     -0.71179917748110122    
  0.76258421087578010      0.31587272301710928    
  0.40732724637758885E-01  0.16871496017067930E-01
 -0.40775262144885957E-01  0.98436874724125809E-01
  0.11122662189697010E-01  0.46064584659881403E-02
  0.63573709324547589E-01 -0.15348018677102659    
  0.29483592689619681     -0.71179847431833265    
  0.32987457591712725E-01  0.13663853042130978E-01
  0.63573674317961446E-01 -0.15348078785352010    
 -0.42889591716141227E-01  0.10354409713587914    
  0.74019205805467017E-01 -0.17869788590752225    
  0.75459255592256691      0.31256280267470887    
 -0.42889681131365313E-01  0.10354401542449679    
  0.11122956026815511E-01  0.46069678339238545E-02
  0.40732472989937533E-01  0.16872872616374077E-01
 -0.40772291943507649E-01  0.98438136878163190E-01
  0.76258371544952797      0.31587239087698021    
  0.29483629675381873     -0.71179893492157464    
  0.63573749641025454E-01 -0.15348062982886509    
  0.32986385416756248E-01  0.13663998803898349E-01
  0.63574722678100340E-01 -0.15348047008605376    
  0.40732633245491687E-01  0.16872167534853138E-01
  0.76258432038162438      0.31587302783830329    
 -0.40774300382330660E-01  0.98436862589862728E-01
  0.11122855452250663E-01  0.46066105307858074E-02
  0.74018898772476499E-01 -0.17869710059996985    
 -0.42889448704151220E-01  0.10354415106055935    
  0.75459407465579265      0.31256201653375454    
 -0.42889547249879090E-01  0.10354427251033997    
  0.40732291961776516E-01  0.16872194993633224E-01
  0.11122021080132563E-01  0.46072698188373076E-02
 -0.40773892900303380E-01  0.98437817468574496E-01
  0.76258401352419647      0.31587252200006677    
  0.76258458650887606     -0.31587278299259319    
  0.11122264025228540E-01 -0.46074700438371230E-02
 -0.40773168755032362E-01 -0.98437290376416756E-01
  0.40732738516576467E-01 -0.16872317268782994E-01
  0.11121856141427437E-01 -0.46060754192522061E-02
  0.76258363383325545     -0.31587306278504518    
 -0.40775175162512736E-01 -0.98437731508698473E-01
  0.40732756699191096E-01 -0.16872111089526801E-01
 -0.42889329782912891E-01 -0.10354416928050512    
 -0.42889513635599334E-01 -0.10354443268029488    
  0.75459267403598118     -0.31256207323180119    
  0.74019093271196698E-01  0.17869795404125743    
  0.63574244681864123E-01  0.15348072930813775    
  0.63573776257046632E-01  0.15348094460942946    
  0.32987441466728461E-01 -0.13663909757443072E-01
  0.29483646044713901      0.71179780999881559    
  0.76258372408098796      0.31587269575844917    
 -0.42889233840773512E-01  0.10354462282977131    
  0.63574757319895439E-01 -0.15348137912122789    
  0.11122150002601035E-01  0.46050971116454150E-02
 -0.40772650326972769E-01  0.98438183259436027E-01
  0.75459226653605893      0.31256214436437807    
  0.32987389282241479E-01  0.13663716998274733E-01
 -0.40775747311147088E-01  0.98436602249475272E-01
  0.40732156578668931E-01  0.16873900554627674E-01
  0.74018880807445842E-01 -0.17869857737141676    
  0.29483536387707299     -0.71179808292793922    
  0.40733021189952506E-01  0.16872004318477622E-01
  0.11123004988550964E-01  0.46059904210534091E-02
 -0.42889355207672765E-01  0.10354471017782453    
  0.63573904492859171E-01 -0.15348059242228679    
  0.76258420923396686      0.31587382075403858    
  0.76258421029740397      0.31587272128467886    
  0.63573839244613198E-01 -0.15348091702327649    
 -0.42889674829438423E-01  0.10354405269860985    
  0.11122243091836211E-01  0.46063097460882791E-02
  0.40732362890797541E-01  0.16872941216538106E-01
  0.29483624111031809     -0.71179918502453376    
  0.74018888350110515E-01 -0.17869717867814044    
  0.40732611755858086E-01  0.16871472112922604E-01
 -0.40772150225224194E-01  0.98438150770250615E-01
  0.32986192534497166E-01  0.13663465794219690E-01
  0.75459373350701275      0.31256298704155255    
 -0.40775310741998506E-01  0.98436552017513876E-01
  0.11122300273895287E-01  0.46067756170661365E-02
  0.63573993789077438E-01 -0.15348039854937875    
 -0.42889605295707817E-01  0.10354404215622871    
  0.76258483610682715      0.31587277590136287    
  0.29483577477184747      0.71179831774049795    
  0.40733088440168007E-01 -0.16873165447774393E-01
  0.40732484206132014E-01 -0.16872205449294190E-01
  0.74019207585735741E-01  0.17869729071444607    
  0.63574562326610004E-01  0.15348094199294962    
  0.76258406062668171     -0.31587259949837215    
  0.11122181813753889E-01 -0.46063408937122696E-02
 -0.42889771956318525E-01 -0.10354430265116739    
  0.63574633463081495E-01  0.15348072864812354    
  0.11122317201602247E-01 -0.46063024837151934E-02
  0.76258414036203914     -0.31587274849179142    
 -0.42889624763669330E-01 -0.10354431287066081    
  0.32986617533395046E-01 -0.13663996401395017E-01
 -0.40773287106974393E-01 -0.98436739885680302E-01
 -0.40774881943956592E-01 -0.98438036640160598E-01
  0.75459334343906792     -0.31256249101848332    
  0.76258456103885375     -0.31587301133841988    
 -0.42889556933679726E-01 -0.10354455129735066    
  0.63574728724921828E-01  0.15347992311224176    
  0.11123634532293640E-01 -0.46062049691757865E-02
 -0.40775588967862507E-01 -0.98436483815049963E-01
  0.75459395911045890     -0.31256283723861966    
  0.32986799296476618E-01 -0.13663495447332592E-01
 -0.40772575864968082E-01 -0.98437787971282151E-01
  0.40732166879903081E-01 -0.16872177908617638E-01
  0.74018699632782903E-01  0.17869727473571451    
  0.29483574031789833      0.71179929935611208    
  0.40731864509029971E-01 -0.16872908619433628E-01
  0.11122822206211106E-01 -0.46056442142877871E-02
 -0.42889685831270695E-01 -0.10354435726372434    
  0.63574116020281457E-01  0.15348139942873218    
  0.76258341663514939     -0.31587356130899058    
  0.76258421087578065     -0.31587272301710922    
  0.63573709324547506E-01  0.15348018677102657    
 -0.42889591716141220E-01 -0.10354409713587907    
  0.11122956026815482E-01 -0.46069678339238579E-02
  0.40732724637758837E-01 -0.16871496017067927E-01
  0.29483592689619692      0.71179847431833243    
  0.74019205805466975E-01  0.17869788590752222    
  0.40732472989937478E-01 -0.16872872616374102E-01
 -0.40775262144885964E-01 -0.98436874724125781E-01
  0.32987457591712684E-01 -0.13663853042130990E-01
  0.75459255592256669     -0.31256280267470882    
 -0.40772291943507649E-01 -0.98438136878163218E-01
  0.11122662189697095E-01 -0.46064584659881655E-02
  0.63573674317961432E-01  0.15348078785352010    
 -0.42889681131365320E-01 -0.10354401542449679    
  0.76258371544952808     -0.31587239087698016    
  0.75459283743980876     -0.31256288806109389    
 -0.40773296569606682E-01 -0.98436720362790817E-01
 -0.40774969637143658E-01 -0.98437767290529554E-01
  0.32987307111642168E-01 -0.13663288383582335E-01
 -0.42889227924223255E-01 -0.10354436018710483    
  0.76258326475137372     -0.31587265182741664    
  0.11122491380662784E-01 -0.46066317029271981E-02
  0.63574203692496348E-01  0.15348132167298120    
 -0.42888956765523040E-01 -0.10354454777561140    
  0.11122772899304115E-01 -0.46074953346101613E-02
  0.76258423094639882     -0.31587332223833614    
  0.63573013936867970E-01  0.15348031385795646    
  0.74018718086463695E-01  0.17869790210336051    
  0.40733118791427179E-01 -0.16872591889915703E-01
  0.40732314293637321E-01 -0.16871638384322374E-01
  0.29483690609059665      0.71179809290961493    
  0.29483629016558272     -0.71179890315076799    
  0.40732507322207220E-01  0.16872382613822942E-01
  0.40731784475671391E-01  0.16872268442538450E-01
  0.74018977197930783E-01 -0.17869813846043558    
  0.63573533340575222E-01 -0.15348055676369526    
  0.76258469428996967      0.31587281752730834    
  0.11122572305039812E-01  0.46069190769643656E-02
 -0.42889063720699311E-01  0.10354461857327650    
  0.63573560465814291E-01 -0.15348048747250284    
  0.11122908974943094E-01  0.46067821865318544E-02
  0.76258417168779191      0.31587271426348501    
 -0.42888966591038129E-01  0.10354476659980411    
  0.32987067825053278E-01  0.13663830372900034E-01
 -0.40774038912614566E-01  0.98436388105638498E-01
 -0.40774167903449413E-01  0.98438255893274221E-01
  0.75459293382319570      0.31256282611042424    
  0.75459331039304856      0.31256272080056940    
 -0.40774106864384811E-01  0.98436332683714142E-01
 -0.40774457234534829E-01  0.98438308456626475E-01
  0.32986774597745620E-01  0.13663546203900024E-01
 -0.42889953013501105E-01  0.10354433204430225    
  0.76258520530958473      0.31587347905087426    
  0.11122605748344250E-01  0.46065055763717458E-02
  0.63574437723584981E-01 -0.15348001552318360    
 -0.42889669502405414E-01  0.10354442562727766    
  0.11121683756837985E-01  0.46067107295788851E-02
  0.76258363953997510      0.31587318635026662    
  0.63574084240694509E-01 -0.15348140673650140    
  0.74019241450734324E-01 -0.17869768623967244    
  0.40732831368118692E-01  0.16871889432576129E-01
  0.40732217209414161E-01  0.16871862255983517E-01
  0.29483681912258269     -0.71179845696662625    
  0.30000969378226511     -0.72428798168297193    
  0.29300200903421888E-01  0.12136459760338334E-01
  0.29300070804935647E-01  0.12136624931736941E-01
  0.29299686311541149E-01  0.12136253302920022E-01
  0.58154069342606959E-01 -0.14039606637636606    
  0.76122403255830995      0.31530933484757728    
  0.15635461063185273E-01  0.64760770084449065E-02
  0.15635763527851659E-01  0.64769521855080666E-02
  0.58153818940716320E-01 -0.14039641868770600    
  0.15635329065525880E-01  0.64768959223685972E-02
  0.76122420170811744      0.31530881892782714    
  0.15635916937733006E-01  0.64766451746235462E-02
  0.58154089352333314E-01 -0.14039629299812750    
  0.15636168897505472E-01  0.64765925551561370E-02
  0.15635170302905163E-01  0.64764987984406077E-02
  0.76122370611951018      0.31530936973878970    
  0.75459265670905273     -0.31256187570704846    
  0.74019371812746829E-01  0.17869782289688152    
 -0.42889813809846605E-01 -0.10354437130703388    
 -0.42889683668293953E-01 -0.10354425776039161    
  0.32987368201395063E-01 -0.13664358227193793E-01
  0.29483563100999094      0.71179768103453023    
  0.63574279693760630E-01  0.15348116247561278    
  0.63573930906128923E-01  0.15348118159082716    
 -0.40774438566871248E-01 -0.98438258021827124E-01
  0.40732391511258237E-01 -0.16872114815000464E-01
  0.76258416268896545     -0.31587288187432361    
  0.11122479109425688E-01 -0.46069315105924736E-02
 -0.40773651112749498E-01 -0.98436849937591608E-01
  0.40733626094120484E-01 -0.16872328345698285E-01
  0.11121507250173218E-01 -0.46063093771290262E-02
  0.76258416729375522     -0.31587237515078753    
  0.75459324880357204     -0.31256360095999219    
 -0.42889818044491886E-01 -0.10354420893955614    
  0.74018935384984719E-01  0.17869747138921824    
 -0.42889531286121114E-01 -0.10354445116252167    
 -0.40773526013114451E-01 -0.98436917063570981E-01
  0.76258408687791090     -0.31587279906516308    
  0.40732758649692669E-01 -0.16872019201655146E-01
  0.11122243494462889E-01 -0.46066200291981730E-02
  0.32986672127637895E-01 -0.13663231688457624E-01
  0.63574190780915515E-01  0.15348077233684096    
  0.29483664075622562      0.71179885111578611    
  0.63574611014549726E-01  0.15348071408565228    
 -0.40774850704844566E-01 -0.98437599230584108E-01
  0.11122890960612423E-01 -0.46066718234632608E-02
  0.40731894472663677E-01 -0.16872398665542857E-01
  0.76258442755353850     -0.31587266668644876    
  0.30000989532524874      0.72428774591813228    
  0.29299808024045301E-01 -0.12136341243301598E-01
  0.29299783071071575E-01 -0.12136611241906564E-01
  0.29300370786520102E-01 -0.12136557930645662E-01
  0.58154361179202446E-01  0.14039648424282231    
  0.76122447267548643     -0.31530958838486967    
  0.15635684836170415E-01 -0.64759047187830281E-02
  0.15634809180855552E-01 -0.64764453887383678E-02
  0.58153905076935269E-01  0.14039627886954087    
  0.15635497789951637E-01 -0.64767401298878365E-02
  0.76122468939631294     -0.31530913054932058    
  0.15635167468608498E-01 -0.64760183935719711E-02
  0.58154123877974119E-01  0.14039627573265936    
  0.15635026049533984E-01 -0.64759763877125310E-02
  0.15635732870900393E-01 -0.64764639637343970E-02
  0.76122466690685209     -0.31530988156551903    
  0.75459283743980843      0.31256288806109384    
 -0.42889227924223255E-01  0.10354436018710481    
 -0.42888956765523137E-01  0.10354454777561141    
  0.74018718086463653E-01 -0.17869790210336042    
 -0.40773296569606730E-01  0.98436720362790928E-01
  0.76258326475137350      0.31587265182741686    
  0.11122772899304099E-01  0.46074953346101491E-02
  0.40733118791427138E-01  0.16872591889915679E-01
 -0.40774969637143686E-01  0.98437767290529651E-01
  0.11122491380662772E-01  0.46066317029272120E-02
  0.76258423094639871      0.31587332223833636    
  0.40732314293637314E-01  0.16871638384322374E-01
  0.32987307111642258E-01  0.13663288383582273E-01
  0.63574203692496292E-01 -0.15348132167298120    
  0.63573013936867970E-01 -0.15348031385795649    
  0.29483690609059676     -0.71179809290961482    
  0.75459395270839191      0.31256241083613329    
  0.74018835188611617E-01 -0.17869749540182267    
 -0.42889432606419697E-01  0.10354444697868784    
 -0.42889362357944466E-01  0.10354461050464063    
  0.32986410408690540E-01  0.13663655632019123E-01
  0.29483644615873633     -0.71179937550161965    
  0.63573780104819178E-01 -0.15348039258677654    
  0.63573400658071516E-01 -0.15348082789502837    
 -0.40774256746281747E-01  0.98437691118263032E-01
  0.40732152617925482E-01  0.16872227561573756E-01
  0.76258405834446363      0.31587271869282263    
  0.11122149676212821E-01  0.46070515658284033E-02
 -0.40773632981724227E-01  0.98436994263300312E-01
  0.40732264635441169E-01  0.16871880653673611E-01
  0.11123339190893883E-01  0.46073375255331140E-02
  0.76258473331536702      0.31587250634547542    
  0.75459227283335006      0.31256338409939571    
 -0.42889340484476984E-01  0.10354440746791968    
  0.74018738929889014E-01 -0.17869804819772223    
 -0.42888985357962907E-01  0.10354446660400622    
 -0.40774374485991013E-01  0.98437202379891287E-01
  0.76258443058186909      0.31587286481460536    
  0.40732714188851507E-01  0.16871800361367099E-01
  0.11122560003583576E-01  0.46068442402685322E-02
  0.32987610549182395E-01  0.13663302379154384E-01
  0.63573736938821665E-01 -0.15348116841526441    
  0.29483651379744746     -0.71179785829083986    
  0.63574010011361357E-01 -0.15348076515067341    
 -0.40773906617943952E-01  0.98437622928521956E-01
  0.11122143484140640E-01  0.46066398717881886E-02
  0.40732129058024216E-01  0.16873198212247007E-01
  0.76258413542730041      0.31587246238865924    
  0.75459331039304867     -0.31256272080056946    
 -0.42889953013501132E-01 -0.10354433204430233    
 -0.42889669502405491E-01 -0.10354442562727770    
  0.74019241450734269E-01  0.17869768623967244    
 -0.40774106864384825E-01 -0.98436332683714142E-01
  0.76258520530958429     -0.31587347905087415    
  0.11121683756837983E-01 -0.46067107295789129E-02
  0.40732831368118727E-01 -0.16871889432576108E-01
 -0.40774457234534774E-01 -0.98438308456626503E-01
  0.11122605748344248E-01 -0.46065055763717614E-02
  0.76258363953997477     -0.31587318635026684    
  0.40732217209414119E-01 -0.16871862255983562E-01
  0.32986774597745724E-01 -0.13663546203900015E-01
  0.63574437723585037E-01  0.15348001552318347    
  0.63574084240694537E-01  0.15348140673650140    
  0.29483681912258264      0.71179845696662603    
  0.29483675542617982     -0.71179912971116743    
  0.74018773462641477E-01 -0.17869737562593022    
  0.40732045191706111E-01  0.16871574072692543E-01
  0.40732857218540940E-01  0.16872589277626873E-01
  0.32986640591421056E-01  0.13663040412371973E-01
  0.75459366696700925      0.31256356025134063    
 -0.40774233918056929E-01  0.98437883573854662E-01
 -0.40773876241760466E-01  0.98436596705505988E-01
  0.63573471613634747E-01 -0.15348056048639455    
 -0.42889375451542644E-01  0.10354424138019630    
  0.76258405836579024      0.31587377015265261    
  0.11122883095873139E-01  0.46055668041574569E-02
  0.63573543780918784E-01 -0.15348055364176016    
 -0.42889406601173338E-01  0.10354431733210867    
  0.11123101157949693E-01  0.46061238410199283E-02
  0.76258374464910106      0.31587380825044814    
  0.75459265670905240      0.31256187570704858    
  0.32987368201395140E-01  0.13664358227193784E-01
 -0.40774438566871206E-01  0.98438258021827221E-01
 -0.40773651112749561E-01  0.98436849937591650E-01
  0.74019371812746829E-01 -0.17869782289688144    
  0.29483563100999094     -0.71179768103452967    
  0.40732391511258341E-01  0.16872114815000529E-01
  0.40733626094120533E-01  0.16872328345698327E-01
 -0.42889813809846584E-01  0.10354437130703385    
  0.63574279693760560E-01 -0.15348116247561261    
  0.76258416268896556      0.31587288187432377    
  0.11121507250173281E-01  0.46063093771290297E-02
 -0.42889683668293946E-01  0.10354425776039161    
  0.63573930906128853E-01 -0.15348118159082708    
  0.11122479109425749E-01  0.46069315105924996E-02
  0.76258416729375522      0.31587237515078748    
  0.76258437062600593     -0.31587344076998269    
  0.11122365612845870E-01 -0.46071414075157550E-02
  0.63573858220276169E-01  0.15348078683393085    
 -0.42889553331252488E-01 -0.10354448545544379    
  0.11122110166256412E-01 -0.46064554643602098E-02
  0.76258431829444395     -0.31587224748267961    
  0.63574041948047055E-01  0.15348120858713876    
 -0.42889493190613671E-01 -0.10354456039961236    
  0.40732641429286308E-01 -0.16871909435441337E-01
  0.40732188014453850E-01 -0.16872169641062570E-01
  0.29483658367304555      0.71179794276006347    
  0.74019320055886045E-01  0.17869815135944550    
 -0.40774912069515792E-01 -0.98436336082250275E-01
 -0.40773586026074789E-01 -0.98438623502016265E-01
  0.32987621416376907E-01 -0.13663648543636917E-01
  0.75459229426149554     -0.31256285762231478    
  0.29483621172951591      0.71179805935037432    
  0.74019206474979699E-01  0.17869793774026607    
  0.40732627622454783E-01 -0.16872015582413222E-01
  0.40732479271182988E-01 -0.16872633321588431E-01
  0.32987478346995107E-01 -0.13663546715201768E-01
  0.75459233986465601     -0.31256273064591783    
 -0.40774419969427204E-01 -0.98438060190122662E-01
 -0.40773963626082321E-01 -0.98437029311424368E-01
  0.63574092769233939E-01  0.15348068654522048    
 -0.42889660707540168E-01 -0.10354424182631800    
  0.76258344855740967     -0.31587357008163841    
  0.11123113295014612E-01 -0.46051986390493981E-02
  0.63574118035963967E-01  0.15348077573052382    
 -0.42889709537234824E-01 -0.10354412825342998    
  0.11122562323064918E-01 -0.46054895229787202E-02
  0.76258398759614043     -0.31587391439517065    
  0.75459395270839147     -0.31256241083613345    
  0.32986410408690596E-01 -0.13663655632019113E-01
 -0.40774256746281753E-01 -0.98437691118263115E-01
 -0.40773632981724178E-01 -0.98436994263300326E-01
  0.74018835188611576E-01  0.17869749540182261    
  0.29483644615873661      0.71179937550162009    
  0.40732152617925545E-01 -0.16872227561573826E-01
  0.40732264635441176E-01 -0.16871880653673562E-01
 -0.42889432606419635E-01 -0.10354444697868782    
  0.63573780104819136E-01  0.15348039258677659    
  0.76258405834446363     -0.31587271869282274    
  0.11123339190893910E-01 -0.46073375255331140E-02
 -0.42889362357944445E-01 -0.10354461050464060    
  0.63573400658071599E-01  0.15348082789502834    
  0.11122149676212863E-01 -0.46070515658284301E-02
  0.76258473331536714     -0.31587250634547542    
  0.76258413134624692     -0.31587261198658606    
  0.11123126746812775E-01 -0.46070366943470921E-02
 -0.42889355636430135E-01 -0.10354434544609989    
  0.63574051745848431E-01  0.15348038569023612    
  0.11122139896627095E-01 -0.46074346604005629E-02
  0.76258424870409214     -0.31587334151802560    
 -0.42889455308220824E-01 -0.10354406038263601    
  0.63573139998994416E-01  0.15348051137328908    
 -0.40774648050311092E-01 -0.98436460655285427E-01
 -0.40773470197161495E-01 -0.98438073119894498E-01
  0.75459396168333581     -0.31256271489430898    
  0.32986340492011136E-01 -0.13663528174857437E-01
  0.40732990957078441E-01 -0.16871456351740841E-01
  0.40731760541809429E-01 -0.16872203096014230E-01
  0.74018903504240827E-01  0.17869724696884465    
  0.29483704370469721      0.71179917748110144    
  0.76258381311295120      0.31587315230330432    
  0.11122207597719992E-01  0.46069685090874132E-02
  0.63573952773774811E-01 -0.15348138145759868    
 -0.42889380480032165E-01  0.10354433484090281    
  0.11122855385152669E-01  0.46070678265679758E-02
  0.76258439399199951      0.31587223653802332    
  0.63574145705459217E-01 -0.15348052039591603    
 -0.42889498588151616E-01  0.10354433018651661    
  0.40732627877630594E-01  0.16872778846087261E-01
  0.40732448669595613E-01  0.16871621325317207E-01
  0.29483680383670824     -0.71179845818735443    
  0.74018849371748463E-01 -0.17869728554476530    
 -0.40773496266769675E-01  0.98437227562006943E-01
 -0.40774854739477444E-01  0.98437258819273857E-01
  0.32986581050479018E-01  0.13663069845215174E-01
  0.75459356300411196      0.31256326132787920    
  0.76258458650887628      0.31587278299259314    
  0.11121856141427335E-01  0.46060754192521914E-02
 -0.42889329782912981E-01  0.10354416928050517    
  0.63574244681864109E-01 -0.15348072930813769    
  0.11122264025228428E-01  0.46074700438370779E-02
  0.76258363383325523      0.31587306278504523    
 -0.42889513635599397E-01  0.10354443268029487    
  0.63573776257046577E-01 -0.15348094460942943    
 -0.40773168755032327E-01  0.98437290376416811E-01
 -0.40775175162512743E-01  0.98437731508698445E-01
  0.75459267403598096      0.31256207323180113    
  0.32987441466728426E-01  0.13663909757443094E-01
  0.40732738516576480E-01  0.16872317268782907E-01
  0.40732756699191137E-01  0.16872111089526787E-01
  0.74019093271196809E-01 -0.17869795404125743    
  0.29483646044713901     -0.71179780999881570    
  0.29483632435018681     -0.71179848878450447    
  0.40732775353992008E-01  0.16872365168613429E-01
  0.74019129946872764E-01 -0.17869787749719573    
  0.40732679410572792E-01  0.16871848545899393E-01
  0.63573025831601113E-01 -0.15348101305675338    
  0.76258404753745468      0.31587289302874222    
 -0.42889260290885974E-01  0.10354428014256269    
  0.11122106258308555E-01  0.46075267792407473E-02
  0.32987151973498802E-01  0.13664037516093422E-01
 -0.40773651326084778E-01  0.98437225941237605E-01
  0.75459287059640057      0.31256205766113770    
 -0.40774609446703698E-01  0.98437508028875201E-01
  0.63573934066326471E-01 -0.15348020560933048    
  0.11122215621144032E-01  0.46067870800719918E-02
 -0.42889176203141720E-01  0.10354424757477822    
  0.76258450753050566      0.31587268906083282    
  0.75459324880357159      0.31256360095999208    
 -0.40773526013114444E-01  0.98436917063571036E-01
  0.32986672127637860E-01  0.13663231688457587E-01
 -0.40774850704844524E-01  0.98437599230584080E-01
 -0.42889818044491872E-01  0.10354420893955608    
  0.76258408687791102      0.31587279906516308    
  0.63574190780915488E-01 -0.15348077233684093    
  0.11122890960612459E-01  0.46066718234632330E-02
  0.74018935384984705E-01 -0.17869747138921835    
  0.40732758649692745E-01  0.16872019201655090E-01
  0.29483664075622584     -0.71179885111578611    
  0.40731894472663607E-01  0.16872398665542833E-01
 -0.42889531286121121E-01  0.10354445116252166    
  0.11122243494462872E-01  0.46066200291981748E-02
  0.63574611014549753E-01 -0.15348071408565231    
  0.76258442755353817      0.31587266668644876    
  0.76258463522066700     -0.31587314884641932    
  0.63573234366460132E-01  0.15348067871425897    
  0.11121995908377928E-01 -0.46075772745182734E-02
 -0.42889830275198028E-01 -0.10354433327108098    
  0.40732974901780863E-01 -0.16871524276911798E-01
  0.29483674922177588      0.71179905613425887    
  0.40732408736496598E-01 -0.16871890852232108E-01
  0.74018842928874021E-01  0.17869735079927468    
  0.11122480472183137E-01 -0.46062573815317540E-02
  0.63574236820721858E-01  0.15348068345977786    
  0.76258397189066118     -0.31587301072826240    
 -0.42889655096436732E-01 -0.10354412668493876    
 -0.40774816186252318E-01 -0.98436430641535427E-01
  0.32986170418748004E-01 -0.13663325891153592E-01
 -0.40773132136911992E-01 -0.98438235451896242E-01
  0.75459417822892794     -0.31256266528094012    
  0.29483629675381895      0.71179893492157476    
  0.40732633245491694E-01 -0.16872167534853235E-01
  0.74018898772476444E-01  0.17869710059996968    
  0.40732291961776523E-01 -0.16872194993633193E-01
  0.63573749641025482E-01  0.15348062982886507    
  0.76258432038162394     -0.31587302783830312    
 -0.42889448704151213E-01 -0.10354415106055939    
  0.11122021080132568E-01 -0.46072698188373501E-02
  0.32986385416756234E-01 -0.13663998803898320E-01
 -0.40774300382330680E-01 -0.98436862589862673E-01
  0.75459407465579253     -0.31256201653375454    
 -0.40773892900303400E-01 -0.98437817468574509E-01
  0.63574722678100326E-01  0.15348047008605381    
  0.11122855452250524E-01 -0.46066105307858898E-02
 -0.42889547249879124E-01 -0.10354427251034001    
  0.76258401352419658     -0.31587252200006677    
  0.75459227283334984     -0.31256338409939566    
 -0.40774374485991027E-01 -0.98437202379891273E-01
  0.32987610549182311E-01 -0.13663302379154406E-01
 -0.40773906617943931E-01 -0.98437622928521970E-01
 -0.42889340484476970E-01 -0.10354440746791968    
  0.76258443058186931     -0.31587286481460530    
  0.63573736938821637E-01  0.15348116841526441    
  0.11122143484140619E-01 -0.46066398717881625E-02
  0.74018738929889097E-01  0.17869804819772228    
  0.40732714188851583E-01 -0.16871800361367085E-01
  0.29483651379744735      0.71179785829083997    
  0.40732129058024258E-01 -0.16873198212247059E-01
 -0.42888985357962879E-01 -0.10354446660400619    
  0.11122560003583493E-01 -0.46068442402685773E-02
  0.63574010011361329E-01  0.15348076515067349    
  0.76258413542730030     -0.31587246238865924    
  0.76258418896448310     -0.31587322275506002    
 -0.42889336138039753E-01 -0.10354446465179189    
  0.11123504459221939E-01 -0.46059655359140892E-02
  0.63574084509381679E-01  0.15348023916028564    
 -0.40774848548190155E-01 -0.98436358273061617E-01
  0.75459210940004462     -0.31256283858872785    
 -0.40773416811206067E-01 -0.98438587400635894E-01
  0.32987704775557201E-01 -0.13664028390028967E-01
  0.11123062349336812E-01 -0.46052094889748830E-02
 -0.42889577750682945E-01 -0.10354460554198147    
  0.76258353032649262     -0.31587292649955445    
  0.63574054441482050E-01  0.15348093549974801    
  0.40732584883180684E-01 -0.16872540129003410E-01
  0.74019362733142705E-01  0.17869832140304609    
  0.40731586619976078E-01 -0.16872959937308835E-01
  0.29483537815460337      0.71179865632412997    
  0.76258384259299250      0.31587274269270460    
  0.63573330021315363E-01 -0.15348123329881455    
  0.11122219932310483E-01  0.46074462888148725E-02
 -0.42889516774994495E-01  0.10354408600226231    
  0.40732823789393080E-01  0.16872734758932435E-01
  0.29483637846514582     -0.71179798286358131    
  0.40732484981156440E-01  0.16871145622406096E-01
  0.74018807586180096E-01 -0.17869808648358418    
  0.11122501809181361E-01  0.46064816070520145E-02
  0.63574154625205201E-01 -0.15348035549760511    
  0.76258420887072309      0.31587306319573388    
 -0.42889360700991204E-01  0.10354434176358585    
 -0.40772689924933582E-01  0.98437462145645679E-01
  0.32987703898908025E-01  0.13663822243911094E-01
 -0.40775271467840102E-01  0.98437664487910567E-01
  0.75459250777000730      0.31256188623033593    
  0.76258408824728119      0.31587320674658570    
 -0.42889447569782253E-01  0.10354442222842604    
  0.11122198875175434E-01  0.46050732748837073E-02
  0.63574425832555251E-01 -0.15348116377242563    
 -0.40772825509023135E-01  0.98437439171302973E-01
  0.75459376007465129      0.31256330732651744    
 -0.40775235068052397E-01  0.98437221814415346E-01
  0.32986265541979289E-01  0.13663427737143125E-01
  0.11122988823410911E-01  0.46052799666667270E-02
 -0.42889504345213214E-01  0.10354426784142742    
  0.76258455796409597      0.31587331037065491    
  0.63574380762343868E-01 -0.15348041907186807    
  0.40732490728031305E-01  0.16873575581606806E-01
  0.74018860944118609E-01 -0.17869700770146973    
  0.40732418288018997E-01  0.16872642347872578E-01
  0.29483552066354762     -0.71179900354574077    
  0.76122508465938343     -0.31530939956150822    
  0.15635252539419397E-01 -0.64761758512828236E-02
  0.15635656593248327E-01 -0.64767910480124776E-02
  0.58153819017622767E-01  0.14039599856694937    
  0.15635186331669174E-01 -0.64762465940293888E-02
  0.76122418273428150     -0.31530996258181004    
  0.15634903785113147E-01 -0.64764672293293945E-02
  0.58154304567796765E-01  0.14039670828234996    
  0.15635536586821958E-01 -0.64757621024285330E-02
  0.15634901752469142E-01 -0.64770346270409751E-02
  0.76122404704084334     -0.31530908349804021    
  0.58154227417877957E-01  0.14039661288374150    
  0.29299957529636132E-01 -0.12136805464824074E-01
  0.29300247510611110E-01 -0.12136313239746947E-01
  0.29300549841984078E-01 -0.12136541015026696E-01
  0.30000966428647446      0.72428744030428205    
  0.29483577477184736     -0.71179831774049818    
  0.63574562326610046E-01 -0.15348094199294959    
  0.63574633463081509E-01 -0.15348072864812359    
  0.32986617533395053E-01  0.13663996401395040E-01
  0.40733088440168007E-01  0.16873165447774511E-01
  0.76258406062668194      0.31587259949837221    
  0.11122317201602325E-01  0.46063024837152133E-02
 -0.40773287106974400E-01  0.98436739885680302E-01
  0.40732484206131944E-01  0.16872205449294228E-01
  0.11122181813753806E-01  0.46063408937121924E-02
  0.76258414036203936      0.31587274849179142    
 -0.40774881943956585E-01  0.98438036640160639E-01
  0.74019207585735824E-01 -0.17869729071444598    
 -0.42889771956318511E-01  0.10354430265116742    
 -0.42889624763669337E-01  0.10354431287066081    
  0.75459334343906770      0.31256249101848321    
  0.76258437062600570      0.31587344076998242    
  0.11122110166256400E-01  0.46064554643601542E-02
  0.40732641429286384E-01  0.16871909435441399E-01
 -0.40774912069515772E-01  0.98436336082250275E-01
  0.11122365612845892E-01  0.46071414075157680E-02
  0.76258431829444362      0.31587224748267967    
  0.40732188014453823E-01  0.16872169641062643E-01
 -0.40773586026074775E-01  0.98438623502016265E-01
  0.63573858220276239E-01 -0.15348078683393088    
  0.63574041948046958E-01 -0.15348120858713876    
  0.29483658367304555     -0.71179794276006358    
  0.32987621416376872E-01  0.13663648543636862E-01
 -0.42889553331252446E-01  0.10354448545544380    
 -0.42889493190613623E-01  0.10354456039961239    
  0.74019320055886018E-01 -0.17869815135944558    
  0.75459229426149532      0.31256285762231467    
  0.76258463522066688      0.31587314884641926    
  0.40732974901780919E-01  0.16871524276911774E-01
  0.11122480472183177E-01  0.46062573815317202E-02
 -0.40774816186252325E-01  0.98436430641535400E-01
  0.63573234366460132E-01 -0.15348067871425886    
  0.29483674922177588     -0.71179905613425842    
  0.63574236820721844E-01 -0.15348068345977783    
  0.32986170418747969E-01  0.13663325891153568E-01
  0.11121995908377928E-01  0.46075772745182899E-02
  0.40732408736496604E-01  0.16871890852232105E-01
  0.76258397189066129      0.31587301072826252    
 -0.40773132136912006E-01  0.98438235451896228E-01
 -0.42889830275197993E-01  0.10354433327108092    
  0.74018842928873951E-01 -0.17869735079927471    
 -0.42889655096436656E-01  0.10354412668493876    
  0.75459417822892805      0.31256266528094029    
  0.76122367281416292      0.31530890169338749    
  0.15635840991628226E-01  0.64763488201191972E-02
  0.15634966429872273E-01  0.64764767449033865E-02
  0.58154155170329028E-01 -0.14039672640829864    
  0.15635869149165087E-01  0.64764010993561272E-02
  0.76122390889106539      0.31530990140512616    
  0.15636037276723566E-01  0.64766636816574723E-02
  0.58154046347781867E-01 -0.14039585429793952    
  0.15635984744411104E-01  0.64760959847126208E-02
  0.15635527157408676E-01  0.64768846353330436E-02
  0.76122467570565266      0.31530934187669601    
  0.58154013788141529E-01 -0.14039588915339624    
  0.29299791324053762E-01  0.12136650113707546E-01
  0.29299825622171344E-01  0.12136263034519520E-01
  0.29299502839521867E-01  0.12136175285744229E-01
  0.30001015805075126     -0.72428822127896919    
  0.29483629016558283      0.71179890315076821    
  0.63573533340575208E-01  0.15348055676369535    
  0.63573560465814305E-01  0.15348048747250301    
  0.32987067825053222E-01 -0.13663830372900004E-01
  0.40732507322207206E-01 -0.16872382613822887E-01
  0.76258469428996944     -0.31587281752730845    
  0.11122908974943096E-01 -0.46067821865319082E-02
 -0.40774038912614559E-01 -0.98436388105638567E-01
  0.40731784475671433E-01 -0.16872268442538415E-01
  0.11122572305039888E-01 -0.46069190769644219E-02
  0.76258417168779158     -0.31587271426348507    
 -0.40774167903449426E-01 -0.98438255893274249E-01
  0.74018977197930852E-01  0.17869813846043556    
 -0.42889063720699276E-01 -0.10354461857327647    
 -0.42888966591038087E-01 -0.10354476659980416    
  0.75459293382319581     -0.31256282611042419    
  0.76258381311295109     -0.31587315230330448    
  0.11122855385152628E-01 -0.46070678265679940E-02
  0.40732627877630621E-01 -0.16872778846087278E-01
 -0.40773496266769654E-01 -0.98437227562006985E-01
  0.11122207597719981E-01 -0.46069685090874132E-02
  0.76258439399199929     -0.31587223653802338    
  0.40732448669595550E-01 -0.16871621325317221E-01
 -0.40774854739477451E-01 -0.98437258819273926E-01
  0.63573952773774908E-01  0.15348138145759882    
  0.63574145705459259E-01  0.15348052039591598    
  0.29483680383670818      0.71179845818735443    
  0.32986581050479011E-01 -0.13663069845215153E-01
 -0.42889380480032185E-01 -0.10354433484090272    
 -0.42889498588151588E-01 -0.10354433018651668    
  0.74018849371748435E-01  0.17869728554476541    
  0.75459356300411207     -0.31256326132787915    
  0.76258384259299261     -0.31587274269270454    
  0.40732823789393136E-01 -0.16872734758932473E-01
  0.11122501809181425E-01 -0.46064816070520440E-02
 -0.40772689924933533E-01 -0.98437462145645679E-01
  0.63573330021315294E-01  0.15348123329881452    
  0.29483637846514582      0.71179798286358131    
  0.63574154625205215E-01  0.15348035549760514    
  0.32987703898908038E-01 -0.13663822243911078E-01
  0.11122219932310495E-01 -0.46074462888148985E-02
  0.40732484981156496E-01 -0.16871145622406096E-01
  0.76258420887072331     -0.31587306319573388    
 -0.40775271467840095E-01 -0.98437664487910553E-01
 -0.42889516774994467E-01 -0.10354408600226234    
  0.74018807586180138E-01  0.17869808648358423    
 -0.42889360700991176E-01 -0.10354434176358580    
  0.75459250777000764     -0.31256188623033604    
  0.67881657032646625     -0.67881676526173484     -0.67881610059233222    
 -0.67881690483738122     -0.67881641773479173      0.67881611041953360    
 -0.67881625651625177      0.67881633482768666     -0.67881648988113297    
  0.67881617596332733      0.67881606481445877      0.67881693564000511    
   1.0231785350832492    
   1.0231785932196611    
   1.0231788370066066    
   1.0231786327935191    
