
             +---------------------------------------------------+
             |                                                   |
             |                   WANNIER90                       |
             |                                                   |
             +---------------------------------------------------+
             |                                                   |
             |        Welcome to the Maximally-Localized         |
             |        Generalized Wannier Functions code         |
             |            http://www.wannier.org                 |
             |                                                   |
             |                                                   |
             |  Wannier90 Developer Group:                       |
             |    Giovanni Pizzi    (EPFL)                       |
             |    Valerio Vitale    (Cambridge)                  |
             |    David Vanderbilt  (Rutgers University)         |
             |    Nicola Marzari    (EPFL)                       |
             |    Ivo Souza         (Universidad del Pais Vasco) |
             |    Arash A. Mostofi  (Imperial College London)    |
             |    Jonathan R. Yates (University of Oxford)       |
             |                                                   |
             |  For the full list of Wannier90 3.x authors,      |
             |  please check the code documentation and the      |
             |  README on the GitHub page of the code            |
             |                                                   |
             |                                                   |
             |  Please cite                                      |
             |                                                   |
             |  [ref] "Wannier90 as a community code:            |
             |        new features and applications",            |
             |        G. Pizzi et al., J. Phys. Cond. Matt. 32,  |
             |        165902 (2020).                             |
             |        http://doi.org/10.1088/1361-648X/ab51ff    |
             |                                                   |
             |  in any publications arising from the use of      |
             |  this code. For the method please cite            |
             |                                                   |
             |  [ref] "Maximally Localized Generalised Wannier   |
             |         Functions for Composite Energy Bands"     |
             |         N. Marzari and D. Vanderbilt              |
             |         Phys. Rev. B 56 12847 (1997)              |
             |                                                   |
             |  [ref] "Maximally Localized Wannier Functions     |
             |         for Entangled Energy Bands"               |
             |         I. Souza, N. Marzari and D. Vanderbilt    |
             |         Phys. Rev. B 65 035109 (2001)             |
             |                                                   |
             |                                                   |
             | Copyright (c) 1996-2020                           |
             |        The Wannier90 Developer Group and          |
             |        individual contributors                    |
             |                                                   |
             |      Release: 3.1.0        5th March    2020      |
             |                                                   |
             | This program is free software; you can            |
             | redistribute it and/or modify it under the terms  |
             | of the GNU General Public License as published by |
             | the Free Software Foundation; either version 2 of |
             | the License, or (at your option) any later version|
             |                                                   |
             | This program is distributed in the hope that it   |
             | will be useful, but WITHOUT ANY WARRANTY; without |
             | even the implied warranty of MERCHANTABILITY or   |
             | FITNESS FOR A PARTICULAR PURPOSE. See the GNU     |
             | General Public License for more details.          |
             |                                                   |
             | You should have received a copy of the GNU General|
             | Public License along with this program; if not,   |
             | write to the Free Software Foundation, Inc.,      |
             | 675 Mass Ave, Cambridge, MA 02139, USA.           |
             |                                                   |
             +---------------------------------------------------+
             |    Execution started on  9Sep2022 at 16:41:47     |
             +---------------------------------------------------+
 
 ******************************************************************************
 * -> Using CODATA 2006 constant values                                       *
 *    (http://physics.nist.gov/cuu/Constants/index.html)                      *
 * -> Using Bohr value from CODATA                                            *
 ******************************************************************************
 

 Running in serial (with parallel executable)

                                    ------
                                    SYSTEM
                                    ------

                              Lattice Vectors (Ang)
                    a_1     0.000000   2.715265   2.715265
                    a_2     2.715265   0.000000   2.715265
                    a_3     2.715265   2.715265   0.000000

                   Unit Cell Volume:      40.03747  (Ang^3)

                        Reciprocal-Space Vectors (Ang^-1)
                    b_1    -1.157011   1.157011   1.157011
                    b_2     1.157011  -1.157011   1.157011
                    b_3     1.157011   1.157011  -1.157011
  
 *----------------------------------------------------------------------------*
 |   Site       Fractional Coordinate          Cartesian Coordinate (Ang)     |
 +----------------------------------------------------------------------------+
 | Si   1   0.00000   0.00000   0.00000   |    0.00000   0.00000   0.00000    |
 | Si   2   0.25000   0.25000   0.25000   |    1.35763   1.35763   1.35763    |
 *----------------------------------------------------------------------------*
                                ------------
                                K-POINT GRID
                                ------------
  
             Grid size =  2 x  2 x  2      Total points =    8
  
  
 *---------------------------------- MAIN ------------------------------------*
 |  Number of Wannier Functions               :                 4             |
 |  Number of Objective Wannier Functions     :                 4             |
 |  Number of input Bloch states              :                 4             |
 |  Output verbosity (1=low, 5=high)          :                 1             |
 |  Timing Level (1=low, 5=high)              :                 1             |
 |  Optimisation (0=memory, 3=speed)          :                 3             |
 |  Length Unit                               :               Ang             |
 |  Post-processing setup (write *.nnkp)      :                 F             |
 |  Using Gamma-only branch of algorithms     :                 F             |
 |  Wavefunction (UNK) file-type              :         formatted             |
 |  Wavefunction spin channel                 :                up             |
 *----------------------------------------------------------------------------*
 *------------------------------- WANNIERISE ---------------------------------*
 |  Total number of iterations                :              4000             |
 |  Number of CG steps before reset           :               200             |
 |  Trial step length for line search         :             2.000             |
 |  Convergence tolerence                     :         0.200E-06             |
 |  Convergence window                        :                 3             |
 |  Iterations between writing output         :                 1             |
 |  Iterations between backing up to disk     :               100             |
 |  Write r^2_nm to file                      :                 F             |
 |  Write xyz WF centres to file              :                 F             |
 |  Write on-site energies <0n|H|0n> to file  :                 F             |
 |  Use guiding centre to control phases      :                 F             |
 |  Use phases for initial projections        :                 F             |
 *----------------------------------------------------------------------------*
 *-------------------------------- PLOTTING ----------------------------------*
 |  Plotting Wannier functions                :                 T             |
 |   Size of supercell for plotting           :     3x    3x    3             |
 |   Plotting mode (molecule or crystal)      :           crystal             |
 |   Plotting format                          :          xcrysden             |
 *----------------------------------------------------------------------------*
 |  Plotting interpolated bandstructure       :                 T             |
 |   Number of K-path sections                :                 7             |
 |   Divisions along first K-path section     :               100             |
 |   Output format                            :           gnuplot             |
 |   Output mode                              :               s-k             |
 *----------------------------------------------------------------------------*
 |   K-space path sections:                                                   |
 |    From: G       0.000  0.000  0.000     To: X       0.500  0.000  0.500   |
 |    From: X       0.500  0.000  0.500     To: U       0.625  0.250  0.625   |
 |    From: U       0.625  0.250  0.625     To: K       0.375  0.375  0.750   |
 |    From: K       0.375  0.375  0.750     To: G       0.000  0.000  0.000   |
 |    From: G       0.000  0.000  0.000     To: L       0.500  0.500  0.500   |
 |    From: L       0.500  0.500  0.500     To: W       0.500  0.250  0.750   |
 |    From: W       0.500  0.250  0.750     To: X       0.500  0.000  0.500   |
 *----------------------------------------------------------------------------*
 Time to read parameters        0.014 (sec)

 *---------------------------------- K-MESH ----------------------------------*
 +----------------------------------------------------------------------------+
 |                    Distance to Nearest-Neighbour Shells                    |
 |                    ------------------------------------                    |
 |          Shell             Distance (Ang^-1)          Multiplicity         |
 |          -----             -----------------          ------------         |
 |             1                   1.002001                      8            |
 |             2                   1.157011                      6            |
 |             3                   1.636261                     12            |
 |             4                   1.918686                     24            |
 |             5                   2.004003                      8            |
 |             6                   2.314023                      6            |
 |             7                   2.521648                     24            |
 |             8                   2.587156                     24            |
 |             9                   2.834088                     24            |
 |            10                   3.006004                     32            |
 |            11                   3.272523                     12            |
 |            12                   3.422486                     48            |
 |            13                   3.471034                     30            |
 |            14                   3.658791                     24            |
 |            15                   3.793516                     24            |
 |            16                   3.837373                     24            |
 |            17                   4.008005                      8            |
 |            18                   4.131357                     48            |
 |            19                   4.171664                     24            |
 |            20                   4.329140                     48            |
 |            21                   4.443587                     72            |
 |            22                   4.628046                      6            |
 |            23                   4.735273                     24            |
 |            24                   4.770480                     48            |
 |            25                   4.908784                     36            |
 |            26                   5.010006                     56            |
 |            27                   5.043296                     24            |
 |            28                   5.174312                     24            |
 |            29                   5.270438                     72            |
 |            30                   5.302092                     48            |
 |            31                   5.426865                     24            |
 |            32                   5.518593                     48            |
 |            33                   5.668175                     24            |
 |            34                   5.756059                     72            |
 |            35                   5.785057                     30            |
 |            36                   5.899624                     72            |
 +----------------------------------------------------------------------------+
 | The b-vectors are chosen automatically                                     |
 | The following shells are used:   1                                         |
 +----------------------------------------------------------------------------+
 |                        Shell   # Nearest-Neighbours                        |
 |                        -----   --------------------                        |
 |                          1               8                                 |
 +----------------------------------------------------------------------------+
 | Completeness relation is fully satisfied [Eq. (B1), PRB 56, 12847 (1997)]  |
 +----------------------------------------------------------------------------+
 |                  b_k Vectors (Ang^-1) and Weights (Ang^2)                  |
 |                  ----------------------------------------                  |
 |            No.         b_k(x)      b_k(y)      b_k(z)        w_b           |
 |            ---        --------------------------------     --------        |
 |             1         0.578506    0.578506   -0.578506     0.373504        |
 |             2         0.578506   -0.578506    0.578506     0.373504        |
 |             3        -0.578506    0.578506    0.578506     0.373504        |
 |             4         0.578506    0.578506    0.578506     0.373504        |
 |             5        -0.578506   -0.578506    0.578506     0.373504        |
 |             6        -0.578506    0.578506   -0.578506     0.373504        |
 |             7         0.578506   -0.578506   -0.578506     0.373504        |
 |             8        -0.578506   -0.578506   -0.578506     0.373504        |
 +----------------------------------------------------------------------------+
 |                           b_k Directions (Ang^-1)                          |
 |                           -----------------------                          |
 |            No.           x           y           z                         |
 |            ---        --------------------------------                     |
 |             1         0.578506    0.578506   -0.578506                     |
 |             2         0.578506   -0.578506    0.578506                     |
 |             3        -0.578506    0.578506    0.578506                     |
 |             4         0.578506    0.578506    0.578506                     |
 +----------------------------------------------------------------------------+
  
 Time to get kmesh              0.016 (sec)
 *============================================================================*
 |                              MEMORY ESTIMATE                               |
 |         Maximum RAM allocated during each phase of the calculation         |
 *============================================================================*
 |                            Wannierise:            0.06 Mb                  |
 |                          plot_wannier:            0.06 Mb                  |
 *----------------------------------------------------------------------------*
  
 Starting a new Wannier90 calculation ...


 Reading overlaps from si2.mmn    :  Created on  9Sep2022 at 16:41: 5

 Reading projections from si2.amn :  Created on  9Sep2022 at 16:41: 5

 Time to read overlaps          0.002 (sec)

 Writing checkpoint file si2.chk... done


 *------------------------------- WANNIERISE ---------------------------------*
 +--------------------------------------------------------------------+<-- CONV
 | Iter  Delta Spread     RMS Gradient      Spread (Ang^2)      Time  |<-- CONV
 +--------------------------------------------------------------------+<-- CONV

 ------------------------------------------------------------------------------
 Initial State
  WF centre and spread    1  (  0.678817, -0.678817, -0.678816 )     1.02317857
  WF centre and spread    2  ( -0.678817, -0.678816,  0.678816 )     1.02317861
  WF centre and spread    3  ( -0.678816,  0.678816, -0.678816 )     1.02317878
  WF centre and spread    4  (  0.678816,  0.678816,  0.678817 )     1.02317864
  Sum of centres and spreads ( -0.000000, -0.000001,  0.000000 )     4.09271460

      0     0.409E+01     0.0000000000        4.0927145981       0.00  <-- CONV
        O_D=      0.0000000 O_OD=      0.3822249 O_TOT=      4.0927146 <-- SPRD
 ------------------------------------------------------------------------------
 Cycle:      1
  WF centre and spread    1  (  0.678817, -0.678817, -0.678816 )     1.02317855
  WF centre and spread    2  ( -0.678817, -0.678816,  0.678816 )     1.02317860
  WF centre and spread    3  ( -0.678816,  0.678816, -0.678816 )     1.02317881
  WF centre and spread    4  (  0.678816,  0.678816,  0.678817 )     1.02317864
  Sum of centres and spreads ( -0.000000, -0.000001,  0.000000 )     4.09271460

      1    -0.118E-11     0.0000015322        4.0927145981       0.00  <-- CONV
        O_D=      0.0000000 O_OD=      0.3822249 O_TOT=      4.0927146 <-- SPRD
 Delta: O_D=  0.3899544E-13 O_OD= -0.1223577E-11 O_TOT= -0.1183942E-11 <-- DLTA
 ------------------------------------------------------------------------------
 Cycle:      2
  WF centre and spread    1  (  0.678817, -0.678817, -0.678816 )     1.02317854
  WF centre and spread    2  ( -0.678817, -0.678816,  0.678816 )     1.02317860
  WF centre and spread    3  ( -0.678816,  0.678816, -0.678816 )     1.02317882
  WF centre and spread    4  (  0.678816,  0.678816,  0.678817 )     1.02317863
  Sum of centres and spreads ( -0.000000, -0.000001,  0.000000 )     4.09271460

      2    -0.231E-12     0.0000008334        4.0927145981       0.00  <-- CONV
        O_D=      0.0000000 O_OD=      0.3822249 O_TOT=      4.0927146 <-- SPRD
 Delta: O_D= -0.2066559E-13 O_OD= -0.2096101E-12 O_TOT= -0.2309264E-12 <-- DLTA
 ------------------------------------------------------------------------------
 Cycle:      3
  WF centre and spread    1  (  0.678817, -0.678817, -0.678816 )     1.02317854
  WF centre and spread    2  ( -0.678817, -0.678816,  0.678816 )     1.02317859
  WF centre and spread    3  ( -0.678816,  0.678816, -0.678816 )     1.02317884
  WF centre and spread    4  (  0.678816,  0.678816,  0.678817 )     1.02317863
  Sum of centres and spreads ( -0.000000, -0.000001,  0.000000 )     4.09271460

      3    -0.126E-12     0.0000006261        4.0927145981       0.00  <-- CONV
        O_D=      0.0000000 O_OD=      0.3822249 O_TOT=      4.0927146 <-- SPRD
 Delta: O_D= -0.3433199E-13 O_OD= -0.9170442E-13 O_TOT= -0.1261213E-12 <-- DLTA
 ------------------------------------------------------------------------------

             <<<     Delta < 2.000E-07  over  3 iterations     >>>
             <<< Wannierisation convergence criteria satisfied >>>

 Final State
  WF centre and spread    1  (  0.678817, -0.678817, -0.678816 )     1.02317854
  WF centre and spread    2  ( -0.678817, -0.678816,  0.678816 )     1.02317859
  WF centre and spread    3  ( -0.678816,  0.678816, -0.678816 )     1.02317884
  WF centre and spread    4  (  0.678816,  0.678816,  0.678817 )     1.02317863
  Sum of centres and spreads ( -0.000000, -0.000001,  0.000000 )     4.09271460

         Spreads (Ang^2)       Omega I      =     3.710489723
        ================       Omega D      =     0.000000000
                               Omega OD     =     0.382224875
    Final Spread (Ang^2)       Omega Total  =     4.092714598
 ------------------------------------------------------------------------------
 Time for wannierise            0.001 (sec)

 Writing checkpoint file si2.chk... done

 *---------------------------------------------------------------------------*
 |                               PLOTTING                                    |
 *---------------------------------------------------------------------------*


 Calculating interpolated band-structure

 Time to calculate interpolated band structure       0.014 (sec)

      Wannier Function Num:    1       Maximum Im/Re Ratio =   15.967766
      Wannier Function Num:    2       Maximum Im/Re Ratio =   15.967005
      Wannier Function Num:    3       Maximum Im/Re Ratio =   15.967117
      Wannier Function Num:    4       Maximum Im/Re Ratio =   13.820468
  
 Time for plotting              0.296 (sec)
 Total Execution Time           0.329 (sec)

 *===========================================================================*
 |                             TIMING INFORMATION                            |
 *===========================================================================*
 |    Tag                                                Ncalls      Time (s)|
 |---------------------------------------------------------------------------|
 |kmesh: get                                        :         1         0.016|
 |overlap: allocate                                 :         1         0.000|
 |overlap: read                                     :         1         0.002|
 |wann: main                                        :         1         0.001|
 |plot: main                                        :         1         0.296|
 *---------------------------------------------------------------------------*

 All done: wannier90 exiting
