       #
       # Generated by the Wannier90 code http://www.wannier.org
       # On  9Sep2022 at 16:41:47 
       #
CRYSTAL
PRIMVEC
   0.0000000   2.7152650   2.7152650
   2.7152650   0.0000000   2.7152650
   2.7152650   2.7152650   0.0000000
CONVVEC
   0.0000000   2.7152650   2.7152650
   2.7152650   0.0000000   2.7152650
   2.7152650   2.7152650   0.0000000
PRIMCOORD
     2  1
Si      0.0000000   0.0000000   0.0000000
Si      1.3576325   1.3576325   1.3576325


BEGIN_BLOCK_DATAGRID_3D
3D_field
BEGIN_DATAGRID_3D_UNKNOWN
    39    39    39
   -5.848263   -5.848263   -5.848263
   0.0000000   7.9369285   7.9369285
   7.9369285   0.0000000   7.9369285
   7.9369285   7.9369285   0.0000000
  0.60478E-02  0.11103E-01  0.24806E-01  0.34652E-01  0.34143E-01  0.26646E-01
  0.17518E-01  0.92375E-02  0.12941E-02 -0.74096E-02 -0.17455E-01 -0.28699E-01
 -0.34575E-01 -0.30433E-01 -0.24572E-01 -0.38831E-02  0.10876E-01  0.14436E-01
  0.14527E-01  0.12901E-01  0.99896E-02  0.67581E-02  0.40775E-02  0.24543E-02
  0.20960E-02  0.32279E-02  0.60478E-02  0.11103E-01  0.24806E-01  0.34652E-01
  0.34143E-01  0.26646E-01  0.17518E-01  0.92375E-02  0.12941E-02 -0.74096E-02
 -0.17455E-01 -0.28699E-01 -0.34575E-01  0.89398E-02  0.13263E-01  0.25428E-01
  0.32897E-01  0.31282E-01  0.24179E-01  0.16386E-01  0.98361E-02  0.35502E-02
 -0.40781E-02 -0.13021E-01 -0.22592E-01 -0.27747E-01 -0.26565E-01 -0.22211E-01
 -0.65741E-02  0.45583E-02  0.81083E-02  0.94875E-02  0.92668E-02  0.74946E-02
  0.56225E-02  0.41483E-02  0.36438E-02  0.44353E-02  0.60274E-02  0.89398E-02
  0.13263E-01  0.25428E-01  0.32897E-01  0.31282E-01  0.24179E-01  0.16386E-01
  0.98361E-02  0.35502E-02 -0.40781E-02 -0.13021E-01 -0.22592E-01 -0.27747E-01
  0.93256E-02  0.12186E-01  0.20412E-01  0.24441E-01  0.21413E-01  0.15766E-01
  0.10222E-01  0.58249E-02  0.37209E-03 -0.68807E-02 -0.14992E-01 -0.21651E-01
 -0.26139E-01 -0.27930E-01 -0.25201E-01 -0.14243E-01 -0.43462E-02  0.16183E-02
  0.52183E-02  0.61401E-02  0.58116E-02  0.52176E-02  0.46513E-02  0.52795E-02
  0.65672E-02  0.75676E-02  0.93256E-02  0.12186E-01  0.20412E-01  0.24441E-01
  0.21413E-01  0.15766E-01  0.10222E-01  0.58249E-02  0.37209E-03 -0.68807E-02
 -0.14992E-01 -0.21651E-01 -0.26139E-01  0.71534E-02  0.86840E-02  0.13062E-01
  0.13165E-01  0.95961E-02  0.61274E-02  0.29996E-02  0.75527E-03 -0.26893E-02
 -0.76332E-02 -0.13919E-01 -0.18843E-01 -0.23566E-01 -0.25708E-01 -0.23670E-01
 -0.15533E-01 -0.69966E-02 -0.95344E-03  0.25611E-02  0.38317E-02  0.47171E-02
  0.47724E-02  0.54712E-02  0.62791E-02  0.68091E-02  0.66992E-02  0.71534E-02
  0.86840E-02  0.13062E-01  0.13165E-01  0.95961E-02  0.61274E-02  0.29996E-02
  0.75527E-03 -0.26893E-02 -0.76332E-02 -0.13919E-01 -0.18843E-01 -0.23566E-01
  0.33906E-02  0.33778E-02  0.30841E-02  0.36659E-03 -0.29242E-02 -0.51901E-02
 -0.55899E-02 -0.47263E-02 -0.45356E-02 -0.60586E-02 -0.99865E-02 -0.14082E-01
 -0.18044E-01 -0.18905E-01 -0.17148E-01 -0.11666E-01 -0.59836E-02 -0.18255E-02
  0.54395E-03  0.21813E-02  0.37142E-02  0.46699E-02  0.54509E-02  0.54751E-02
  0.50353E-02  0.39254E-02  0.33906E-02  0.33778E-02  0.30841E-02  0.36659E-03
 -0.29242E-02 -0.51901E-02 -0.55899E-02 -0.47263E-02 -0.45356E-02 -0.60586E-02
 -0.99865E-02 -0.14082E-01 -0.18044E-01 -0.33290E-02 -0.51378E-02 -0.88743E-02
 -0.13446E-01 -0.17795E-01 -0.18815E-01 -0.14987E-01 -0.91361E-02 -0.40236E-02
 -0.15734E-02 -0.29557E-02 -0.63095E-02 -0.96670E-02 -0.10516E-01 -0.96515E-02
 -0.70346E-02 -0.42166E-02 -0.22843E-02 -0.72639E-03  0.12200E-02  0.34603E-02
  0.44957E-02  0.45814E-02  0.39394E-02  0.19068E-02 -0.70078E-03 -0.33290E-02
 -0.51378E-02 -0.88743E-02 -0.13446E-01 -0.17795E-01 -0.18815E-01 -0.14987E-01
 -0.91361E-02 -0.40236E-02 -0.15734E-02 -0.29557E-02 -0.63095E-02 -0.96670E-02
 -0.11719E-01 -0.15055E-01 -0.21795E-01 -0.28939E-01 -0.33704E-01 -0.31354E-01
 -0.21354E-01 -0.91758E-02  0.57017E-03  0.55668E-02  0.55207E-02  0.24782E-02
 -0.11626E-02 -0.36227E-02 -0.39738E-02 -0.38060E-02 -0.33242E-02 -0.26242E-02
 -0.10666E-02  0.15425E-02  0.40240E-02  0.47189E-02  0.40090E-02  0.17732E-02
 -0.20620E-02 -0.64353E-02 -0.11719E-01 -0.15055E-01 -0.21795E-01 -0.28939E-01
 -0.33704E-01 -0.31354E-01 -0.21354E-01 -0.91758E-02  0.57017E-03  0.55668E-02
  0.55207E-02  0.24782E-02 -0.11626E-02 -0.21535E-01 -0.26368E-01 -0.36334E-01
 -0.44939E-01 -0.46760E-01 -0.37849E-01 -0.20881E-01 -0.35906E-02  0.86251E-02
  0.14026E-01  0.13753E-01  0.99494E-02  0.49361E-02  0.55935E-03 -0.88866E-03
 -0.27173E-02 -0.34320E-02 -0.27855E-02 -0.38756E-03  0.27104E-02  0.48140E-02
  0.49706E-02  0.29736E-02 -0.85490E-03 -0.63001E-02 -0.13160E-01 -0.21535E-01
 -0.26368E-01 -0.36334E-01 -0.44939E-01 -0.46760E-01 -0.37849E-01 -0.20881E-01
 -0.35906E-02  0.86251E-02  0.14026E-01  0.13753E-01  0.99494E-02  0.49361E-02
 -0.33258E-01 -0.39819E-01 -0.52851E-01 -0.60360E-01 -0.55754E-01 -0.38585E-01
 -0.15443E-01  0.50242E-02  0.17683E-01  0.21978E-01  0.20223E-01  0.14742E-01
  0.80844E-02  0.19061E-02 -0.60523E-03 -0.36211E-02 -0.44989E-02 -0.27354E-02
  0.11934E-02  0.46885E-02  0.62966E-02  0.55603E-02  0.21279E-02 -0.33859E-02
 -0.11078E-01 -0.21289E-01 -0.33258E-01 -0.39819E-01 -0.52851E-01 -0.60360E-01
 -0.55754E-01 -0.38585E-01 -0.15443E-01  0.50242E-02  0.17683E-01  0.21978E-01
  0.20223E-01  0.14742E-01  0.80844E-02 -0.48413E-01 -0.57379E-01 -0.72900E-01
 -0.76354E-01 -0.62475E-01 -0.36258E-01 -0.80519E-02  0.13393E-01  0.24894E-01
  0.27352E-01  0.23738E-01  0.16551E-01  0.82386E-02  0.39798E-03 -0.30430E-02
 -0.65857E-02 -0.63924E-02 -0.22196E-02  0.34868E-02  0.75591E-02  0.86002E-02
  0.67772E-02  0.17527E-02 -0.56468E-02 -0.16589E-01 -0.30994E-01 -0.48413E-01
 -0.57379E-01 -0.72900E-01 -0.76354E-01 -0.62475E-01 -0.36258E-01 -0.80519E-02
  0.13393E-01  0.24894E-01  0.27352E-01  0.23738E-01  0.16551E-01  0.82386E-02
 -0.69395E-01 -0.81211E-01 -0.97948E-01 -0.92730E-01 -0.66537E-01 -0.32291E-01
 -0.11802E-02  0.19413E-01  0.28906E-01  0.29404E-01  0.24185E-01  0.15615E-01
  0.58237E-02 -0.34009E-02 -0.78495E-02 -0.10902E-01 -0.76041E-02 -0.57300E-04
  0.73926E-02  0.11379E-01  0.11689E-01  0.88209E-02  0.26709E-02 -0.71749E-02
 -0.22335E-01 -0.43231E-01 -0.69395E-01 -0.81211E-01 -0.97948E-01 -0.92730E-01
 -0.66537E-01 -0.32291E-01 -0.11802E-02  0.19413E-01  0.28906E-01  0.29404E-01
  0.24185E-01  0.15615E-01  0.58237E-02 -0.94701E-01 -0.10853E+00 -0.11954E+00
 -0.96927E-01 -0.62064E-01 -0.27492E-01  0.29738E-02  0.21565E-01  0.29089E-01
  0.28220E-01  0.21965E-01  0.12484E-01  0.14383E-02 -0.90769E-02 -0.14402E-01
 -0.14726E-01 -0.53639E-02  0.60080E-02  0.13243E-01  0.16192E-01  0.16243E-01
  0.13111E-01  0.63375E-02 -0.65143E-02 -0.27593E-01 -0.58472E-01 -0.94701E-01
 -0.10853E+00 -0.11954E+00 -0.96927E-01 -0.62064E-01 -0.27492E-01  0.29738E-02
  0.21565E-01  0.29089E-01  0.28220E-01  0.21965E-01  0.12484E-01  0.14383E-02
 -0.11582E+00 -0.12671E+00 -0.11677E+00 -0.79391E-01 -0.53042E-01 -0.25544E-01
  0.26376E-02  0.19453E-01  0.26034E-01  0.24595E-01  0.18189E-01  0.83853E-02
 -0.35294E-02 -0.15081E-01 -0.20332E-01 -0.13692E-01  0.31516E-02  0.14006E-01
  0.18703E-01  0.21996E-01  0.23577E-01  0.21869E-01  0.14982E-01 -0.14692E-02
 -0.30602E-01 -0.72366E-01 -0.11582E+00 -0.12671E+00 -0.11677E+00 -0.79391E-01
 -0.53042E-01 -0.25544E-01  0.26376E-02  0.19453E-01  0.26034E-01  0.24595E-01
  0.18189E-01  0.83853E-02 -0.35294E-02 -0.11972E+00 -0.12338E+00 -0.99411E-01
 -0.71657E-01 -0.56466E-01 -0.28367E-01 -0.12612E-02  0.14691E-01  0.21024E-01
  0.20228E-01  0.14523E-01  0.48223E-02 -0.68903E-02 -0.18040E-01 -0.21381E-01
 -0.61484E-02  0.11151E-01  0.18092E-01  0.23702E-01  0.30823E-01  0.36734E-01
  0.38361E-01  0.31246E-01  0.10101E-01 -0.26703E-01 -0.76017E-01 -0.11972E+00
 -0.12338E+00 -0.99411E-01 -0.71657E-01 -0.56466E-01 -0.28367E-01 -0.12612E-02
  0.14691E-01  0.21024E-01  0.20228E-01  0.14523E-01  0.48223E-02 -0.68903E-02
 -0.11836E+00 -0.12032E+00 -0.10003E+00 -0.79874E-01 -0.62056E-01 -0.31360E-01
 -0.58753E-02  0.86846E-02  0.13915E-01  0.12519E-01  0.56293E-02 -0.45244E-02
 -0.14932E-01 -0.22461E-01 -0.23345E-01 -0.34571E-02  0.12819E-01  0.20391E-01
  0.28769E-01  0.39049E-01  0.48029E-01  0.51250E-01  0.42778E-01  0.18091E-01
 -0.22177E-01 -0.74218E-01 -0.11836E+00 -0.12032E+00 -0.10003E+00 -0.79874E-01
 -0.62056E-01 -0.31360E-01 -0.58753E-02  0.86846E-02  0.13915E-01  0.12519E-01
  0.56293E-02 -0.45244E-02 -0.14932E-01 -0.11875E+00 -0.12446E+00 -0.11779E+00
 -0.97468E-01 -0.66138E-01 -0.34476E-01 -0.11882E-01  0.20023E-02  0.81776E-02
  0.78612E-02  0.98542E-03 -0.74830E-02 -0.16619E-01 -0.21095E-01 -0.20751E-01
 -0.48189E-02  0.80666E-02  0.21049E-01  0.38024E-01  0.58285E-01  0.75746E-01
  0.81282E-01  0.67809E-01  0.35408E-01 -0.10314E-01 -0.68595E-01 -0.11875E+00
 -0.12446E+00 -0.11779E+00 -0.97468E-01 -0.66138E-01 -0.34476E-01 -0.11882E-01
  0.20023E-02  0.81776E-02  0.78612E-02  0.98542E-03 -0.74830E-02 -0.16619E-01
 -0.12298E+00 -0.12824E+00 -0.12075E+00 -0.93117E-01 -0.61535E-01 -0.35784E-01
 -0.15749E-01 -0.16086E-02  0.55874E-02  0.50363E-02 -0.19769E-02 -0.10290E-01
 -0.19111E-01 -0.21367E-01 -0.21869E-01 -0.10153E-01  0.55980E-02  0.25981E-01
  0.54061E-01  0.85857E-01  0.10930E+00  0.11053E+00  0.86663E-01  0.43705E-01
 -0.10556E-01 -0.74889E-01 -0.12298E+00 -0.12824E+00 -0.12075E+00 -0.93117E-01
 -0.61535E-01 -0.35784E-01 -0.15749E-01 -0.16086E-02  0.55874E-02  0.50363E-02
 -0.19769E-02 -0.10290E-01 -0.19111E-01 -0.10973E+00 -0.11008E+00 -0.99013E-01
 -0.76413E-01 -0.54221E-01 -0.34074E-01 -0.14921E-01 -0.27054E-03  0.58851E-02
  0.34621E-02 -0.40198E-02 -0.13033E-01 -0.20508E-01 -0.21429E-01 -0.22109E-01
 -0.10203E-01  0.81515E-02  0.35436E-01  0.73820E-01  0.11348E+00  0.13420E+00
  0.12328E+00  0.86684E-01  0.35213E-01 -0.22777E-01 -0.78502E-01 -0.10973E+00
 -0.11008E+00 -0.99013E-01 -0.76413E-01 -0.54221E-01 -0.34074E-01 -0.14921E-01
 -0.27054E-03  0.58851E-02  0.34621E-02 -0.40198E-02 -0.13033E-01 -0.20508E-01
 -0.84579E-01 -0.82538E-01 -0.73709E-01 -0.60114E-01 -0.44778E-01 -0.26994E-01
 -0.80443E-02  0.41395E-02  0.69223E-02  0.25549E-02 -0.44346E-02 -0.12990E-01
 -0.18416E-01 -0.18654E-01 -0.18489E-01 -0.71126E-02  0.12435E-01  0.44868E-01
  0.87851E-01  0.12582E+00  0.13446E+00  0.11081E+00  0.67879E-01  0.17796E-01
 -0.31402E-01 -0.68600E-01 -0.84579E-01 -0.82538E-01 -0.73709E-01 -0.60114E-01
 -0.44778E-01 -0.26994E-01 -0.80443E-02  0.41395E-02  0.69223E-02  0.25549E-02
 -0.44346E-02 -0.12990E-01 -0.18416E-01 -0.60480E-01 -0.58496E-01 -0.53489E-01
 -0.44524E-01 -0.31563E-01 -0.14455E-01  0.84291E-03  0.83231E-02  0.79803E-02
  0.28753E-02 -0.38811E-02 -0.11091E-01 -0.15036E-01 -0.15278E-01 -0.14780E-01
 -0.47669E-02  0.15968E-01  0.48924E-01  0.88192E-01  0.11412E+00  0.11000E+00
  0.81781E-01  0.42918E-01  0.29048E-02 -0.31180E-01 -0.52812E-01 -0.60480E-01
 -0.58496E-01 -0.53489E-01 -0.44524E-01 -0.31563E-01 -0.14455E-01  0.84291E-03
  0.83231E-02  0.79803E-02  0.28753E-02 -0.38811E-02 -0.11091E-01 -0.15036E-01
 -0.42347E-01 -0.40832E-01 -0.36916E-01 -0.28524E-01 -0.15813E-01 -0.14142E-02
  0.81319E-02  0.11419E-01  0.88408E-02  0.32790E-02 -0.30266E-02 -0.89452E-02
 -0.12778E-01 -0.13580E-01 -0.13268E-01 -0.39690E-02  0.16075E-01  0.45369E-01
  0.74752E-01  0.86978E-01  0.76744E-01  0.51902E-01  0.22605E-01 -0.51839E-02
 -0.26424E-01 -0.38655E-01 -0.42347E-01 -0.40832E-01 -0.36916E-01 -0.28524E-01
 -0.15813E-01 -0.14142E-02  0.81319E-02  0.11419E-01  0.88408E-02  0.32790E-02
 -0.30266E-02 -0.89452E-02 -0.12778E-01 -0.29188E-01 -0.27381E-01 -0.22433E-01
 -0.13200E-01 -0.13914E-02  0.89286E-02  0.13783E-01  0.13497E-01  0.94105E-02
  0.39133E-02 -0.20326E-02 -0.81322E-02 -0.12194E-01 -0.13716E-01 -0.13552E-01
 -0.49521E-02  0.12717E-01  0.36346E-01  0.55429E-01  0.59737E-01  0.49227E-01
  0.30538E-01  0.10419E-01 -0.76689E-02 -0.20744E-01 -0.27753E-01 -0.29188E-01
 -0.27381E-01 -0.22433E-01 -0.13200E-01 -0.13914E-02  0.89286E-02  0.13783E-01
  0.13497E-01  0.94105E-02  0.39133E-02 -0.20326E-02 -0.81322E-02 -0.12194E-01
 -0.18625E-01 -0.16173E-01 -0.96833E-02  0.30770E-03  0.10537E-01  0.17548E-01
  0.18563E-01  0.15572E-01  0.10109E-01  0.39331E-02 -0.26388E-02 -0.89211E-02
 -0.13619E-01 -0.15783E-01 -0.15712E-01 -0.75622E-02  0.85598E-02  0.27247E-01
  0.39755E-01  0.40756E-01  0.31867E-01  0.18383E-01  0.46359E-02 -0.69474E-02
 -0.14970E-01 -0.18925E-01 -0.18625E-01 -0.16173E-01 -0.96833E-02  0.30770E-03
  0.10537E-01  0.17548E-01  0.18563E-01  0.15572E-01  0.10109E-01  0.39331E-02
 -0.26388E-02 -0.89211E-02 -0.13619E-01 -0.99169E-02 -0.64663E-02  0.20190E-02
  0.12778E-01  0.21811E-01  0.25110E-01  0.22412E-01  0.16778E-01  0.96629E-02
  0.28463E-02 -0.39653E-02 -0.11190E-01 -0.17276E-01 -0.20177E-01 -0.20292E-01
 -0.10968E-01  0.62048E-02  0.22724E-01  0.30864E-01  0.29560E-01  0.22184E-01
  0.12230E-01  0.25572E-02 -0.49645E-02 -0.99016E-02 -0.11697E-01 -0.99169E-02
 -0.64663E-02  0.20190E-02  0.12778E-01  0.21811E-01  0.25110E-01  0.22412E-01
  0.16778E-01  0.96629E-02  0.28463E-02 -0.39653E-02 -0.11190E-01 -0.17276E-01
 -0.25809E-02  0.18293E-02  0.11850E-01  0.23900E-01  0.31289E-01  0.30419E-01
  0.24058E-01  0.16173E-01  0.83095E-02  0.95433E-03 -0.70566E-02 -0.15953E-01
 -0.23352E-01 -0.25959E-01 -0.24858E-01 -0.10961E-01  0.90836E-02  0.22491E-01
  0.25643E-01  0.22765E-01  0.16528E-01  0.92760E-02  0.24346E-02 -0.25945E-02
 -0.55896E-02 -0.58511E-02 -0.25809E-02  0.18293E-02  0.11850E-01  0.23900E-01
  0.31289E-01  0.30419E-01  0.24058E-01  0.16173E-01  0.83095E-02  0.95433E-03
 -0.70566E-02 -0.15953E-01 -0.23352E-01  0.25875E-02  0.71587E-02  0.19388E-01
  0.32413E-01  0.36367E-01  0.31266E-01  0.22345E-01  0.13733E-01  0.54275E-02
 -0.28253E-02 -0.11991E-01 -0.22413E-01 -0.30382E-01 -0.29343E-01 -0.25209E-01
 -0.53712E-02  0.14225E-01  0.21137E-01  0.20757E-01  0.17511E-01  0.12741E-01
  0.77297E-02  0.30448E-02 -0.59891E-04 -0.16398E-02 -0.75121E-03  0.25875E-02
  0.71587E-02  0.19388E-01  0.32413E-01  0.36367E-01  0.31266E-01  0.22345E-01
  0.13733E-01  0.54275E-02 -0.28253E-02 -0.11991E-01 -0.22413E-01 -0.30382E-01
  0.60478E-02  0.11103E-01  0.24806E-01  0.34652E-01  0.34143E-01  0.26646E-01
  0.17518E-01  0.92375E-02  0.12941E-02 -0.74096E-02 -0.17455E-01 -0.28699E-01
 -0.34575E-01 -0.30433E-01 -0.24572E-01 -0.38831E-02  0.10876E-01  0.14436E-01
  0.14527E-01  0.12901E-01  0.99896E-02  0.67581E-02  0.40775E-02  0.24543E-02
  0.20960E-02  0.32279E-02  0.60478E-02  0.11103E-01  0.24806E-01  0.34652E-01
  0.34143E-01  0.26646E-01  0.17518E-01  0.92375E-02  0.12941E-02 -0.74096E-02
 -0.17455E-01 -0.28699E-01 -0.34575E-01  0.89398E-02  0.13263E-01  0.25428E-01
  0.32897E-01  0.31282E-01  0.24179E-01  0.16386E-01  0.98361E-02  0.35502E-02
 -0.40781E-02 -0.13021E-01 -0.22592E-01 -0.27747E-01 -0.26565E-01 -0.22211E-01
 -0.65741E-02  0.45583E-02  0.81083E-02  0.94875E-02  0.92668E-02  0.74946E-02
  0.56225E-02  0.41483E-02  0.36438E-02  0.44353E-02  0.60274E-02  0.89398E-02
  0.13263E-01  0.25428E-01  0.32897E-01  0.31282E-01  0.24179E-01  0.16386E-01
  0.98361E-02  0.35502E-02 -0.40781E-02 -0.13021E-01 -0.22592E-01 -0.27747E-01
  0.93256E-02  0.12186E-01  0.20412E-01  0.24441E-01  0.21413E-01  0.15766E-01
  0.10222E-01  0.58249E-02  0.37209E-03 -0.68807E-02 -0.14992E-01 -0.21651E-01
 -0.26139E-01 -0.27930E-01 -0.25201E-01 -0.14243E-01 -0.43462E-02  0.16183E-02
  0.52183E-02  0.61401E-02  0.58116E-02  0.52176E-02  0.46513E-02  0.52795E-02
  0.65672E-02  0.75676E-02  0.93256E-02  0.12186E-01  0.20412E-01  0.24441E-01
  0.21413E-01  0.15766E-01  0.10222E-01  0.58249E-02  0.37209E-03 -0.68807E-02
 -0.14992E-01 -0.21651E-01 -0.26139E-01  0.71534E-02  0.86840E-02  0.13062E-01
  0.13165E-01  0.95961E-02  0.61274E-02  0.29996E-02  0.75527E-03 -0.26893E-02
 -0.76332E-02 -0.13919E-01 -0.18843E-01 -0.23566E-01 -0.25708E-01 -0.23670E-01
 -0.15533E-01 -0.69966E-02 -0.95344E-03  0.25611E-02  0.38317E-02  0.47171E-02
  0.47724E-02  0.54712E-02  0.62791E-02  0.68091E-02  0.66992E-02  0.71534E-02
  0.86840E-02  0.13062E-01  0.13165E-01  0.95961E-02  0.61274E-02  0.29996E-02
  0.75527E-03 -0.26893E-02 -0.76332E-02 -0.13919E-01 -0.18843E-01 -0.23566E-01
  0.33906E-02  0.33778E-02  0.30841E-02  0.36659E-03 -0.29242E-02 -0.51901E-02
 -0.55899E-02 -0.47263E-02 -0.45356E-02 -0.60586E-02 -0.99865E-02 -0.14082E-01
 -0.18044E-01 -0.18905E-01 -0.17148E-01 -0.11666E-01 -0.59836E-02 -0.18255E-02
  0.54395E-03  0.21813E-02  0.37142E-02  0.46699E-02  0.54509E-02  0.54751E-02
  0.50353E-02  0.39254E-02  0.33906E-02  0.33778E-02  0.30841E-02  0.36659E-03
 -0.29242E-02 -0.51901E-02 -0.55899E-02 -0.47263E-02 -0.45356E-02 -0.60586E-02
 -0.99865E-02 -0.14082E-01 -0.18044E-01 -0.33290E-02 -0.51378E-02 -0.88743E-02
 -0.13446E-01 -0.17795E-01 -0.18815E-01 -0.14987E-01 -0.91361E-02 -0.40236E-02
 -0.15734E-02 -0.29557E-02 -0.63095E-02 -0.96670E-02 -0.10516E-01 -0.96515E-02
 -0.70346E-02 -0.42166E-02 -0.22843E-02 -0.72639E-03  0.12200E-02  0.34603E-02
  0.44957E-02  0.45814E-02  0.39394E-02  0.19068E-02 -0.70078E-03 -0.33290E-02
 -0.51378E-02 -0.88743E-02 -0.13446E-01 -0.17795E-01 -0.18815E-01 -0.14987E-01
 -0.91361E-02 -0.40236E-02 -0.15734E-02 -0.29557E-02 -0.63095E-02 -0.96670E-02
 -0.11719E-01 -0.15055E-01 -0.21795E-01 -0.28939E-01 -0.33704E-01 -0.31354E-01
 -0.21354E-01 -0.91758E-02  0.57017E-03  0.55668E-02  0.55207E-02  0.24782E-02
 -0.11626E-02 -0.36227E-02 -0.39738E-02 -0.38060E-02 -0.33242E-02 -0.26242E-02
 -0.10666E-02  0.15425E-02  0.40240E-02  0.47189E-02  0.40090E-02  0.17732E-02
 -0.20620E-02 -0.64353E-02 -0.11719E-01 -0.15055E-01 -0.21795E-01 -0.28939E-01
 -0.33704E-01 -0.31354E-01 -0.21354E-01 -0.91758E-02  0.57017E-03  0.55668E-02
  0.55207E-02  0.24782E-02 -0.11626E-02 -0.21535E-01 -0.26368E-01 -0.36334E-01
 -0.44939E-01 -0.46760E-01 -0.37849E-01 -0.20881E-01 -0.35906E-02  0.86251E-02
  0.14026E-01  0.13753E-01  0.99494E-02  0.49361E-02  0.55935E-03 -0.88866E-03
 -0.27173E-02 -0.34320E-02 -0.27855E-02 -0.38756E-03  0.27104E-02  0.48140E-02
  0.49706E-02  0.29736E-02 -0.85490E-03 -0.63001E-02 -0.13160E-01 -0.21535E-01
 -0.26368E-01 -0.36334E-01 -0.44939E-01 -0.46760E-01 -0.37849E-01 -0.20881E-01
 -0.35906E-02  0.86251E-02  0.14026E-01  0.13753E-01  0.99494E-02  0.49361E-02
 -0.33258E-01 -0.39819E-01 -0.52851E-01 -0.60360E-01 -0.55754E-01 -0.38585E-01
 -0.15443E-01  0.50242E-02  0.17683E-01  0.21978E-01  0.20223E-01  0.14742E-01
  0.80844E-02  0.19061E-02 -0.60523E-03 -0.36211E-02 -0.44989E-02 -0.27354E-02
  0.11934E-02  0.46885E-02  0.62966E-02  0.55603E-02  0.21279E-02 -0.33859E-02
 -0.11078E-01 -0.21289E-01 -0.33258E-01 -0.39819E-01 -0.52851E-01 -0.60360E-01
 -0.55754E-01 -0.38585E-01 -0.15443E-01  0.50242E-02  0.17683E-01  0.21978E-01
  0.20223E-01  0.14742E-01  0.80844E-02 -0.48413E-01 -0.57379E-01 -0.72900E-01
 -0.76354E-01 -0.62475E-01 -0.36258E-01 -0.80519E-02  0.13393E-01  0.24894E-01
  0.27352E-01  0.23738E-01  0.16551E-01  0.82386E-02  0.39798E-03 -0.30430E-02
 -0.65857E-02 -0.63924E-02 -0.22196E-02  0.34868E-02  0.75591E-02  0.86002E-02
  0.67772E-02  0.17527E-02 -0.56468E-02 -0.16589E-01 -0.30994E-01 -0.48413E-01
 -0.57379E-01 -0.72900E-01 -0.76354E-01 -0.62475E-01 -0.36258E-01 -0.80519E-02
  0.13393E-01  0.24894E-01  0.27352E-01  0.23738E-01  0.16551E-01  0.82386E-02
 -0.69395E-01 -0.81211E-01 -0.97948E-01 -0.92730E-01 -0.66537E-01 -0.32291E-01
 -0.11802E-02  0.19413E-01  0.28906E-01  0.29404E-01  0.24185E-01  0.15615E-01
  0.58237E-02 -0.34009E-02 -0.78495E-02 -0.10902E-01 -0.76041E-02 -0.57300E-04
  0.73926E-02  0.11379E-01  0.11689E-01  0.88209E-02  0.26709E-02 -0.71749E-02
 -0.22335E-01 -0.43231E-01 -0.69395E-01 -0.81211E-01 -0.97948E-01 -0.92730E-01
 -0.66537E-01 -0.32291E-01 -0.11802E-02  0.19413E-01  0.28906E-01  0.29404E-01
  0.24185E-01  0.15615E-01  0.58237E-02 -0.94701E-01 -0.10853E+00 -0.11954E+00
 -0.96927E-01 -0.62064E-01 -0.27492E-01  0.29738E-02  0.21565E-01  0.29089E-01
  0.28220E-01  0.21965E-01  0.12484E-01  0.14383E-02 -0.90769E-02 -0.14402E-01
 -0.14726E-01 -0.53639E-02  0.60080E-02  0.13243E-01  0.16192E-01  0.16243E-01
  0.13111E-01  0.63375E-02 -0.65143E-02 -0.27593E-01 -0.58472E-01 -0.94701E-01
 -0.10853E+00 -0.11954E+00 -0.96927E-01 -0.62064E-01 -0.27492E-01  0.29738E-02
  0.21565E-01  0.29089E-01  0.28220E-01  0.21965E-01  0.12484E-01  0.14383E-02
 -0.11582E+00 -0.12671E+00 -0.11677E+00 -0.79391E-01 -0.53042E-01 -0.25544E-01
  0.26376E-02  0.19453E-01  0.26034E-01  0.24595E-01  0.18189E-01  0.83853E-02
 -0.35294E-02 -0.15081E-01 -0.20332E-01 -0.13692E-01  0.31516E-02  0.14006E-01
  0.18703E-01  0.21996E-01  0.23577E-01  0.21869E-01  0.14982E-01 -0.14692E-02
 -0.30602E-01 -0.72366E-01 -0.11582E+00 -0.12671E+00 -0.11677E+00 -0.79391E-01
 -0.53042E-01 -0.25544E-01  0.26376E-02  0.19453E-01  0.26034E-01  0.24595E-01
  0.18189E-01  0.83853E-02 -0.35294E-02  0.89396E-02  0.13263E-01  0.25428E-01
  0.32896E-01  0.31281E-01  0.24179E-01  0.16386E-01  0.98361E-02  0.35502E-02
 -0.40780E-02 -0.13021E-01 -0.22592E-01 -0.27746E-01 -0.26565E-01 -0.22211E-01
 -0.65743E-02  0.45581E-02  0.81081E-02  0.94874E-02  0.92667E-02  0.74945E-02
  0.56224E-02  0.41482E-02  0.36437E-02  0.44351E-02  0.60272E-02  0.89396E-02
  0.13263E-01  0.25428E-01  0.32896E-01  0.31281E-01  0.24179E-01  0.16386E-01
  0.98361E-02  0.35502E-02 -0.40780E-02 -0.13021E-01 -0.22592E-01 -0.27746E-01
  0.98562E-02  0.13842E-01  0.24539E-01  0.30200E-01  0.27855E-01  0.21163E-01
  0.14073E-01  0.84790E-02  0.26193E-02 -0.50537E-02 -0.13637E-01 -0.21190E-01
 -0.24336E-01 -0.23351E-01 -0.19361E-01 -0.65393E-02  0.21050E-02  0.56064E-02
  0.77077E-02  0.80217E-02  0.66185E-02  0.53666E-02  0.43299E-02  0.42088E-02
  0.54822E-02  0.69928E-02  0.98562E-02  0.13842E-01  0.24539E-01  0.30200E-01
  0.27855E-01  0.21163E-01  0.14073E-01  0.84790E-02  0.26193E-02 -0.50537E-02
 -0.13637E-01 -0.21190E-01 -0.24336E-01  0.91741E-02  0.12017E-01  0.19224E-01
  0.21920E-01  0.18511E-01  0.13412E-01  0.86392E-02  0.49983E-02  0.37580E-05
 -0.62517E-02 -0.12752E-01 -0.15616E-01 -0.16695E-01 -0.17645E-01 -0.15876E-01
 -0.86929E-02 -0.17702E-02  0.27788E-02  0.56422E-02  0.61604E-02  0.56553E-02
  0.51537E-02  0.48875E-02  0.54887E-02  0.69865E-02  0.75581E-02  0.91741E-02
  0.12017E-01  0.19224E-01  0.21920E-01  0.18511E-01  0.13412E-01  0.86392E-02
  0.49983E-02  0.37580E-05 -0.62517E-02 -0.12752E-01 -0.15616E-01 -0.16695E-01
  0.71543E-02  0.89323E-02  0.12150E-01  0.10930E-01  0.71925E-02  0.42694E-02
  0.21204E-02  0.39712E-03 -0.23468E-02 -0.60519E-02 -0.99837E-02 -0.10950E-01
 -0.12528E-01 -0.14109E-01 -0.13224E-01 -0.80546E-02 -0.19379E-02  0.21848E-02
  0.42410E-02  0.46969E-02  0.48724E-02  0.49027E-02  0.54140E-02  0.58880E-02
  0.64177E-02  0.61148E-02  0.71543E-02  0.89323E-02  0.12150E-01  0.10930E-01
  0.71925E-02  0.42694E-02  0.21204E-02  0.39712E-03 -0.23468E-02 -0.60519E-02
 -0.99837E-02 -0.10950E-01 -0.12528E-01  0.33726E-02  0.33889E-02  0.20148E-02
 -0.16167E-02 -0.53947E-02 -0.73170E-02 -0.66603E-02 -0.53587E-02 -0.45948E-02
 -0.45280E-02 -0.58966E-02 -0.72757E-02 -0.92033E-02 -0.94015E-02 -0.83185E-02
 -0.43616E-02 -0.10770E-03  0.22860E-02  0.29506E-02  0.35986E-02  0.43796E-02
  0.48857E-02  0.52027E-02  0.48832E-02  0.44126E-02  0.36082E-02  0.33726E-02
  0.33889E-02  0.20148E-02 -0.16167E-02 -0.53947E-02 -0.73170E-02 -0.66603E-02
 -0.53587E-02 -0.45948E-02 -0.45280E-02 -0.58966E-02 -0.72757E-02 -0.92033E-02
 -0.31703E-02 -0.49398E-02 -0.97444E-02 -0.15824E-01 -0.21753E-01 -0.23111E-01
 -0.18092E-01 -0.11135E-01 -0.48518E-02 -0.87585E-03 -0.37512E-03 -0.18128E-02
 -0.34465E-02 -0.31361E-02 -0.24435E-02 -0.18574E-03  0.18649E-02  0.20432E-02
  0.20306E-02  0.33136E-02  0.45628E-02  0.50098E-02  0.46183E-02  0.35562E-02
  0.18167E-02 -0.58300E-03 -0.31703E-02 -0.49398E-02 -0.97444E-02 -0.15824E-01
 -0.21753E-01 -0.23111E-01 -0.18092E-01 -0.11135E-01 -0.48518E-02 -0.87585E-03
 -0.37512E-03 -0.18128E-02 -0.34465E-02 -0.10884E-01 -0.14466E-01 -0.22833E-01
 -0.32396E-01 -0.39653E-01 -0.37678E-01 -0.26147E-01 -0.12593E-01 -0.19852E-02
  0.39505E-02  0.55606E-02  0.42669E-02  0.25019E-02  0.18200E-02  0.18036E-02
  0.23698E-02  0.24606E-02  0.18556E-02  0.23851E-02  0.40996E-02  0.52752E-02
  0.53058E-02  0.40370E-02  0.19553E-02 -0.14370E-02 -0.55267E-02 -0.10884E-01
 -0.14466E-01 -0.22833E-01 -0.32396E-01 -0.39653E-01 -0.37678E-01 -0.26147E-01
 -0.12593E-01 -0.19852E-02  0.39505E-02  0.55606E-02  0.42669E-02  0.25019E-02
 -0.19987E-01 -0.25385E-01 -0.37396E-01 -0.48797E-01 -0.52663E-01 -0.43976E-01
 -0.26459E-01 -0.89626E-02  0.33380E-02  0.95418E-02  0.10877E-01  0.90259E-02
  0.64271E-02  0.45034E-02  0.37844E-02  0.28411E-02  0.23164E-02  0.22370E-02
  0.35928E-02  0.53933E-02  0.60885E-02  0.55144E-02  0.34216E-02  0.40535E-04
 -0.47137E-02 -0.11118E-01 -0.19987E-01 -0.25385E-01 -0.37396E-01 -0.48797E-01
 -0.52663E-01 -0.43976E-01 -0.26459E-01 -0.89626E-02  0.33380E-02  0.95418E-02
  0.10877E-01  0.90259E-02  0.64271E-02 -0.29989E-01 -0.37473E-01 -0.52731E-01
 -0.62746E-01 -0.59942E-01 -0.44088E-01 -0.22159E-01 -0.29648E-02  0.92450E-02
  0.14370E-01  0.14609E-01  0.11585E-01  0.78098E-02  0.44545E-02  0.30964E-02
  0.13650E-02  0.10016E-02  0.22167E-02  0.49186E-02  0.70445E-02  0.73990E-02
  0.64686E-02  0.33366E-02 -0.11476E-02 -0.77588E-02 -0.17412E-01 -0.29989E-01
 -0.37473E-01 -0.52731E-01 -0.62746E-01 -0.59942E-01 -0.44088E-01 -0.22159E-01
 -0.29648E-02  0.92450E-02  0.14370E-01  0.14609E-01  0.11585E-01  0.78098E-02
 -0.41842E-01 -0.52009E-01 -0.69612E-01 -0.75810E-01 -0.64862E-01 -0.41980E-01
 -0.16881E-01  0.23926E-02  0.13350E-01  0.16909E-01  0.15895E-01  0.11568E-01
  0.63632E-02  0.16702E-02 -0.48812E-04 -0.21845E-02 -0.11772E-02  0.23169E-02
  0.65081E-02  0.91756E-02  0.96606E-02  0.82805E-02  0.45020E-02 -0.10693E-02
 -0.10525E-01 -0.23823E-01 -0.41842E-01 -0.52009E-01 -0.69612E-01 -0.75810E-01
 -0.64862E-01 -0.41980E-01 -0.16881E-01  0.23926E-02  0.13350E-01  0.16909E-01
  0.15895E-01  0.11568E-01  0.63632E-02 -0.55971E-01 -0.69239E-01 -0.88292E-01
 -0.87267E-01 -0.67371E-01 -0.39389E-01 -0.12824E-01  0.55920E-02  0.14812E-01
  0.16914E-01  0.14602E-01  0.89806E-02  0.23774E-02 -0.33892E-02 -0.53043E-02
 -0.64343E-02 -0.22371E-02  0.37964E-02  0.93888E-02  0.12319E-01  0.13008E-01
  0.11612E-01  0.82148E-02  0.11333E-02 -0.11229E-01 -0.30301E-01 -0.55971E-01
 -0.69239E-01 -0.88292E-01 -0.87267E-01 -0.67371E-01 -0.39389E-01 -0.12824E-01
  0.55920E-02  0.14812E-01  0.16914E-01  0.14602E-01  0.89806E-02  0.23774E-02
 -0.68067E-01 -0.83983E-01 -0.98798E-01 -0.86604E-01 -0.63920E-01 -0.36946E-01
 -0.11185E-01  0.56065E-02  0.13372E-01  0.14391E-01  0.10877E-01  0.42092E-02
 -0.36184E-02 -0.97416E-02 -0.11081E-01 -0.89042E-02 -0.28677E-03  0.80093E-02
  0.13605E-01  0.16730E-01  0.18755E-01  0.19004E-01  0.16633E-01  0.84339E-02
 -0.76673E-02 -0.34335E-01 -0.68067E-01 -0.83983E-01 -0.98798E-01 -0.86604E-01
 -0.63920E-01 -0.36946E-01 -0.11185E-01  0.56065E-02  0.13372E-01  0.14391E-01
  0.10877E-01  0.42092E-02 -0.36184E-02 -0.66358E-01 -0.81124E-01 -0.85653E-01
 -0.72506E-01 -0.59748E-01 -0.36919E-01 -0.12783E-01  0.24428E-02  0.93033E-02
  0.96018E-02  0.55952E-02 -0.18516E-02 -0.93779E-02 -0.14459E-01 -0.14723E-01
 -0.76312E-02  0.44879E-02  0.12060E-01  0.17488E-01  0.23448E-01  0.29417E-01
  0.33413E-01  0.32955E-01  0.24094E-01  0.39355E-02 -0.28277E-01 -0.66358E-01
 -0.81124E-01 -0.85653E-01 -0.72506E-01 -0.59748E-01 -0.36919E-01 -0.12783E-01
  0.24428E-02  0.93033E-02  0.96018E-02  0.55952E-02 -0.18516E-02 -0.93779E-02
 -0.44046E-01 -0.60045E-01 -0.71097E-01 -0.72471E-01 -0.63852E-01 -0.39307E-01
 -0.16793E-01 -0.28598E-02  0.34637E-02  0.40832E-02 -0.26783E-03 -0.72400E-02
 -0.12614E-01 -0.17894E-01 -0.17266E-01 -0.66057E-02  0.49492E-02  0.12988E-01
  0.22797E-01  0.35515E-01  0.48834E-01  0.58687E-01  0.60254E-01  0.50128E-01
  0.28790E-01 -0.30999E-02 -0.44046E-01 -0.60045E-01 -0.71097E-01 -0.72471E-01
 -0.63852E-01 -0.39307E-01 -0.16793E-01 -0.28598E-02  0.34637E-02  0.40832E-02
 -0.26783E-03 -0.72400E-02 -0.12614E-01 -0.35301E-01 -0.55469E-01 -0.75542E-01
 -0.79879E-01 -0.66503E-01 -0.40722E-01 -0.19473E-01 -0.60379E-02  0.45801E-03
  0.14468E-02 -0.32388E-02 -0.92056E-02 -0.14160E-01 -0.20174E-01 -0.19360E-01
 -0.84669E-02  0.27830E-02  0.13289E-01  0.27039E-01  0.44911E-01  0.63362E-01
  0.76265E-01  0.77778E-01  0.66197E-01  0.45333E-01  0.12633E-01 -0.35301E-01
 -0.55469E-01 -0.75542E-01 -0.79879E-01 -0.66503E-01 -0.40722E-01 -0.19473E-01
 -0.60379E-02  0.45801E-03  0.14468E-02 -0.32388E-02 -0.92056E-02 -0.14160E-01
 -0.44279E-01 -0.70851E-01 -0.95156E-01 -0.89312E-01 -0.66654E-01 -0.43181E-01
 -0.24615E-01 -0.11257E-01 -0.37397E-02 -0.28730E-02 -0.81062E-02 -0.12949E-01
 -0.20271E-01 -0.26813E-01 -0.25348E-01 -0.15445E-01 -0.18024E-02  0.15855E-01
  0.40630E-01  0.72212E-01  0.10173E+00  0.11711E+00  0.11345E+00  0.95297E-01
  0.69975E-01  0.23002E-01 -0.44279E-01 -0.70851E-01 -0.95156E-01 -0.89312E-01
 -0.66654E-01 -0.43181E-01 -0.24615E-01 -0.11257E-01 -0.37397E-02 -0.28730E-02
 -0.81062E-02 -0.12949E-01 -0.20271E-01 -0.66651E-01 -0.85872E-01 -0.95839E-01
 -0.82197E-01 -0.62597E-01 -0.44484E-01 -0.27147E-01 -0.12546E-01 -0.50767E-02
 -0.55076E-02 -0.11466E-01 -0.18581E-01 -0.27831E-01 -0.31591E-01 -0.29593E-01
 -0.19245E-01 -0.16770E-02  0.24227E-01  0.62935E-01  0.10932E+00  0.14487E+00
  0.15225E+00  0.13486E+00  0.10289E+00  0.60604E-01 -0.31865E-02 -0.66651E-01
 -0.85872E-01 -0.95839E-01 -0.82197E-01 -0.62597E-01 -0.44484E-01 -0.27147E-01
 -0.12546E-01 -0.50767E-02 -0.55076E-02 -0.11466E-01 -0.18581E-01 -0.27831E-01
 -0.68322E-01 -0.77641E-01 -0.79001E-01 -0.69264E-01 -0.56787E-01 -0.41913E-01
 -0.23001E-01 -0.84716E-02 -0.34873E-02 -0.62096E-02 -0.13523E-01 -0.22555E-01
 -0.30049E-01 -0.31015E-01 -0.28625E-01 -0.17506E-01  0.27650E-02  0.36809E-01
  0.87727E-01  0.14356E+00  0.17154E+00  0.16088E+00  0.12718E+00  0.82081E-01
  0.28814E-01 -0.28439E-01 -0.68322E-01 -0.77641E-01 -0.79001E-01 -0.69264E-01
 -0.56787E-01 -0.41913E-01 -0.23001E-01 -0.84716E-02 -0.34873E-02 -0.62096E-02